# vtk DataFile Version 2.0
MEF - Elasticidade Plana 2D
ASCII
DATASET UNSTRUCTURED_GRID
POINTS      441 float
  0.00000000E+00  0.10000000E+01  0.00000000E+00
  0.50000000E-01  0.10000000E+01  0.00000000E+00
  0.10000000E+00  0.10000000E+01  0.00000000E+00
  0.15000000E+00  0.10000000E+01  0.00000000E+00
  0.20000000E+00  0.10000000E+01  0.00000000E+00
  0.25000000E+00  0.10000000E+01  0.00000000E+00
  0.30000000E+00  0.10000000E+01  0.00000000E+00
  0.35000000E+00  0.10000000E+01  0.00000000E+00
  0.40000000E+00  0.10000000E+01  0.00000000E+00
  0.45000000E+00  0.10000000E+01  0.00000000E+00
  0.50000000E+00  0.10000000E+01  0.00000000E+00
  0.55000000E+00  0.10000000E+01  0.00000000E+00
  0.60000000E+00  0.10000000E+01  0.00000000E+00
  0.65000000E+00  0.10000000E+01  0.00000000E+00
  0.70000000E+00  0.10000000E+01  0.00000000E+00
  0.75000000E+00  0.10000000E+01  0.00000000E+00
  0.80000000E+00  0.10000000E+01  0.00000000E+00
  0.85000000E+00  0.10000000E+01  0.00000000E+00
  0.90000000E+00  0.10000000E+01  0.00000000E+00
  0.95000000E+00  0.10000000E+01  0.00000000E+00
  0.10000000E+01  0.10000000E+01  0.00000000E+00
  0.00000000E+00  0.95000000E+00  0.00000000E+00
  0.50000000E-01  0.95000000E+00  0.00000000E+00
  0.10000000E+00  0.95000000E+00  0.00000000E+00
  0.15000000E+00  0.95000000E+00  0.00000000E+00
  0.20000000E+00  0.95000000E+00  0.00000000E+00
  0.25000000E+00  0.95000000E+00  0.00000000E+00
  0.30000000E+00  0.95000000E+00  0.00000000E+00
  0.35000000E+00  0.95000000E+00  0.00000000E+00
  0.40000000E+00  0.95000000E+00  0.00000000E+00
  0.45000000E+00  0.95000000E+00  0.00000000E+00
  0.50000000E+00  0.95000000E+00  0.00000000E+00
  0.55000000E+00  0.95000000E+00  0.00000000E+00
  0.60000000E+00  0.95000000E+00  0.00000000E+00
  0.65000000E+00  0.95000000E+00  0.00000000E+00
  0.70000000E+00  0.95000000E+00  0.00000000E+00
  0.75000000E+00  0.95000000E+00  0.00000000E+00
  0.80000000E+00  0.95000000E+00  0.00000000E+00
  0.85000000E+00  0.95000000E+00  0.00000000E+00
  0.90000000E+00  0.95000000E+00  0.00000000E+00
  0.95000000E+00  0.95000000E+00  0.00000000E+00
  0.10000000E+01  0.95000000E+00  0.00000000E+00
  0.00000000E+00  0.90000000E+00  0.00000000E+00
  0.50000000E-01  0.90000000E+00  0.00000000E+00
  0.10000000E+00  0.90000000E+00  0.00000000E+00
  0.15000000E+00  0.90000000E+00  0.00000000E+00
  0.20000000E+00  0.90000000E+00  0.00000000E+00
  0.25000000E+00  0.90000000E+00  0.00000000E+00
  0.30000000E+00  0.90000000E+00  0.00000000E+00
  0.35000000E+00  0.90000000E+00  0.00000000E+00
  0.40000000E+00  0.90000000E+00  0.00000000E+00
  0.45000000E+00  0.90000000E+00  0.00000000E+00
  0.50000000E+00  0.90000000E+00  0.00000000E+00
  0.55000000E+00  0.90000000E+00  0.00000000E+00
  0.60000000E+00  0.90000000E+00  0.00000000E+00
  0.65000000E+00  0.90000000E+00  0.00000000E+00
  0.70000000E+00  0.90000000E+00  0.00000000E+00
  0.75000000E+00  0.90000000E+00  0.00000000E+00
  0.80000000E+00  0.90000000E+00  0.00000000E+00
  0.85000000E+00  0.90000000E+00  0.00000000E+00
  0.90000000E+00  0.90000000E+00  0.00000000E+00
  0.95000000E+00  0.90000000E+00  0.00000000E+00
  0.10000000E+01  0.90000000E+00  0.00000000E+00
  0.00000000E+00  0.85000000E+00  0.00000000E+00
  0.50000000E-01  0.85000000E+00  0.00000000E+00
  0.10000000E+00  0.85000000E+00  0.00000000E+00
  0.15000000E+00  0.85000000E+00  0.00000000E+00
  0.20000000E+00  0.85000000E+00  0.00000000E+00
  0.25000000E+00  0.85000000E+00  0.00000000E+00
  0.30000000E+00  0.85000000E+00  0.00000000E+00
  0.35000000E+00  0.85000000E+00  0.00000000E+00
  0.40000000E+00  0.85000000E+00  0.00000000E+00
  0.45000000E+00  0.85000000E+00  0.00000000E+00
  0.50000000E+00  0.85000000E+00  0.00000000E+00
  0.55000000E+00  0.85000000E+00  0.00000000E+00
  0.60000000E+00  0.85000000E+00  0.00000000E+00
  0.65000000E+00  0.85000000E+00  0.00000000E+00
  0.70000000E+00  0.85000000E+00  0.00000000E+00
  0.75000000E+00  0.85000000E+00  0.00000000E+00
  0.80000000E+00  0.85000000E+00  0.00000000E+00
  0.85000000E+00  0.85000000E+00  0.00000000E+00
  0.90000000E+00  0.85000000E+00  0.00000000E+00
  0.95000000E+00  0.85000000E+00  0.00000000E+00
  0.10000000E+01  0.85000000E+00  0.00000000E+00
  0.00000000E+00  0.80000000E+00  0.00000000E+00
  0.50000000E-01  0.80000000E+00  0.00000000E+00
  0.10000000E+00  0.80000000E+00  0.00000000E+00
  0.15000000E+00  0.80000000E+00  0.00000000E+00
  0.20000000E+00  0.80000000E+00  0.00000000E+00
  0.25000000E+00  0.80000000E+00  0.00000000E+00
  0.30000000E+00  0.80000000E+00  0.00000000E+00
  0.35000000E+00  0.80000000E+00  0.00000000E+00
  0.40000000E+00  0.80000000E+00  0.00000000E+00
  0.45000000E+00  0.80000000E+00  0.00000000E+00
  0.50000000E+00  0.80000000E+00  0.00000000E+00
  0.55000000E+00  0.80000000E+00  0.00000000E+00
  0.60000000E+00  0.80000000E+00  0.00000000E+00
  0.65000000E+00  0.80000000E+00  0.00000000E+00
  0.70000000E+00  0.80000000E+00  0.00000000E+00
  0.75000000E+00  0.80000000E+00  0.00000000E+00
  0.80000000E+00  0.80000000E+00  0.00000000E+00
  0.85000000E+00  0.80000000E+00  0.00000000E+00
  0.90000000E+00  0.80000000E+00  0.00000000E+00
  0.95000000E+00  0.80000000E+00  0.00000000E+00
  0.10000000E+01  0.80000000E+00  0.00000000E+00
  0.00000000E+00  0.75000000E+00  0.00000000E+00
  0.50000000E-01  0.75000000E+00  0.00000000E+00
  0.10000000E+00  0.75000000E+00  0.00000000E+00
  0.15000000E+00  0.75000000E+00  0.00000000E+00
  0.20000000E+00  0.75000000E+00  0.00000000E+00
  0.25000000E+00  0.75000000E+00  0.00000000E+00
  0.30000000E+00  0.75000000E+00  0.00000000E+00
  0.35000000E+00  0.75000000E+00  0.00000000E+00
  0.40000000E+00  0.75000000E+00  0.00000000E+00
  0.45000000E+00  0.75000000E+00  0.00000000E+00
  0.50000000E+00  0.75000000E+00  0.00000000E+00
  0.55000000E+00  0.75000000E+00  0.00000000E+00
  0.60000000E+00  0.75000000E+00  0.00000000E+00
  0.65000000E+00  0.75000000E+00  0.00000000E+00
  0.70000000E+00  0.75000000E+00  0.00000000E+00
  0.75000000E+00  0.75000000E+00  0.00000000E+00
  0.80000000E+00  0.75000000E+00  0.00000000E+00
  0.85000000E+00  0.75000000E+00  0.00000000E+00
  0.90000000E+00  0.75000000E+00  0.00000000E+00
  0.95000000E+00  0.75000000E+00  0.00000000E+00
  0.10000000E+01  0.75000000E+00  0.00000000E+00
  0.00000000E+00  0.70000000E+00  0.00000000E+00
  0.50000000E-01  0.70000000E+00  0.00000000E+00
  0.10000000E+00  0.70000000E+00  0.00000000E+00
  0.15000000E+00  0.70000000E+00  0.00000000E+00
  0.20000000E+00  0.70000000E+00  0.00000000E+00
  0.25000000E+00  0.70000000E+00  0.00000000E+00
  0.30000000E+00  0.70000000E+00  0.00000000E+00
  0.35000000E+00  0.70000000E+00  0.00000000E+00
  0.40000000E+00  0.70000000E+00  0.00000000E+00
  0.45000000E+00  0.70000000E+00  0.00000000E+00
  0.50000000E+00  0.70000000E+00  0.00000000E+00
  0.55000000E+00  0.70000000E+00  0.00000000E+00
  0.60000000E+00  0.70000000E+00  0.00000000E+00
  0.65000000E+00  0.70000000E+00  0.00000000E+00
  0.70000000E+00  0.70000000E+00  0.00000000E+00
  0.75000000E+00  0.70000000E+00  0.00000000E+00
  0.80000000E+00  0.70000000E+00  0.00000000E+00
  0.85000000E+00  0.70000000E+00  0.00000000E+00
  0.90000000E+00  0.70000000E+00  0.00000000E+00
  0.95000000E+00  0.70000000E+00  0.00000000E+00
  0.10000000E+01  0.70000000E+00  0.00000000E+00
  0.00000000E+00  0.65000000E+00  0.00000000E+00
  0.50000000E-01  0.65000000E+00  0.00000000E+00
  0.10000000E+00  0.65000000E+00  0.00000000E+00
  0.15000000E+00  0.65000000E+00  0.00000000E+00
  0.20000000E+00  0.65000000E+00  0.00000000E+00
  0.25000000E+00  0.65000000E+00  0.00000000E+00
  0.30000000E+00  0.65000000E+00  0.00000000E+00
  0.35000000E+00  0.65000000E+00  0.00000000E+00
  0.40000000E+00  0.65000000E+00  0.00000000E+00
  0.45000000E+00  0.65000000E+00  0.00000000E+00
  0.50000000E+00  0.65000000E+00  0.00000000E+00
  0.55000000E+00  0.65000000E+00  0.00000000E+00
  0.60000000E+00  0.65000000E+00  0.00000000E+00
  0.65000000E+00  0.65000000E+00  0.00000000E+00
  0.70000000E+00  0.65000000E+00  0.00000000E+00
  0.75000000E+00  0.65000000E+00  0.00000000E+00
  0.80000000E+00  0.65000000E+00  0.00000000E+00
  0.85000000E+00  0.65000000E+00  0.00000000E+00
  0.90000000E+00  0.65000000E+00  0.00000000E+00
  0.95000000E+00  0.65000000E+00  0.00000000E+00
  0.10000000E+01  0.65000000E+00  0.00000000E+00
  0.00000000E+00  0.60000000E+00  0.00000000E+00
  0.50000000E-01  0.60000000E+00  0.00000000E+00
  0.10000000E+00  0.60000000E+00  0.00000000E+00
  0.15000000E+00  0.60000000E+00  0.00000000E+00
  0.20000000E+00  0.60000000E+00  0.00000000E+00
  0.25000000E+00  0.60000000E+00  0.00000000E+00
  0.30000000E+00  0.60000000E+00  0.00000000E+00
  0.35000000E+00  0.60000000E+00  0.00000000E+00
  0.40000000E+00  0.60000000E+00  0.00000000E+00
  0.45000000E+00  0.60000000E+00  0.00000000E+00
  0.50000000E+00  0.60000000E+00  0.00000000E+00
  0.55000000E+00  0.60000000E+00  0.00000000E+00
  0.60000000E+00  0.60000000E+00  0.00000000E+00
  0.65000000E+00  0.60000000E+00  0.00000000E+00
  0.70000000E+00  0.60000000E+00  0.00000000E+00
  0.75000000E+00  0.60000000E+00  0.00000000E+00
  0.80000000E+00  0.60000000E+00  0.00000000E+00
  0.85000000E+00  0.60000000E+00  0.00000000E+00
  0.90000000E+00  0.60000000E+00  0.00000000E+00
  0.95000000E+00  0.60000000E+00  0.00000000E+00
  0.10000000E+01  0.60000000E+00  0.00000000E+00
  0.00000000E+00  0.55000000E+00  0.00000000E+00
  0.50000000E-01  0.55000000E+00  0.00000000E+00
  0.10000000E+00  0.55000000E+00  0.00000000E+00
  0.15000000E+00  0.55000000E+00  0.00000000E+00
  0.20000000E+00  0.55000000E+00  0.00000000E+00
  0.25000000E+00  0.55000000E+00  0.00000000E+00
  0.30000000E+00  0.55000000E+00  0.00000000E+00
  0.35000000E+00  0.55000000E+00  0.00000000E+00
  0.40000000E+00  0.55000000E+00  0.00000000E+00
  0.45000000E+00  0.55000000E+00  0.00000000E+00
  0.50000000E+00  0.55000000E+00  0.00000000E+00
  0.55000000E+00  0.55000000E+00  0.00000000E+00
[...]
POINT_DATA      441
VECTORS Deslocamentos float
  0.40515668E+01  0.00000000E+00  0.00000000E+00
  0.36420258E+01  0.00000000E+00  0.00000000E+00
  0.32322249E+01  0.00000000E+00  0.00000000E+00
  0.28230221E+01  0.00000000E+00  0.00000000E+00
  0.24150401E+01  0.00000000E+00  0.00000000E+00
  0.20086701E+01  0.00000000E+00  0.00000000E+00
  0.16040769E+01  0.00000000E+00  0.00000000E+00
  0.12012138E+01  0.00000000E+00  0.00000000E+00
  0.79984957E+00  0.00000000E+00  0.00000000E+00
  0.39960532E+00  0.00000000E+00  0.00000000E+00
  0.21384094E-09  0.00000000E+00  0.00000000E+00
 -0.39960532E+00  0.00000000E+00  0.00000000E+00
 -0.79984957E+00  0.00000000E+00  0.00000000E+00
 -0.12012138E+01  0.00000000E+00  0.00000000E+00
 -0.16040769E+01  0.00000000E+00  0.00000000E+00
 -0.20086701E+01  0.00000000E+00  0.00000000E+00
 -0.24150401E+01  0.00000000E+00  0.00000000E+00
 -0.28230221E+01  0.00000000E+00  0.00000000E+00
 -0.32322249E+01  0.00000000E+00  0.00000000E+00
 -0.36420258E+01  0.00000000E+00  0.00000000E+00
 -0.40515668E+01  0.00000000E+00  0.00000000E+00
  0.40508650E+01 -0.95606356E+00  0.00000000E+00
  0.36408288E+01 -0.95738511E+00  0.00000000E+00
  0.32308496E+01 -0.95764784E+00  0.00000000E+00
  0.28216400E+01 -0.95704457E+00  0.00000000E+00
  0.24137596E+01 -0.95581208E+00  0.00000000E+00
  0.20075663E+01 -0.95420758E+00  0.00000000E+00
  0.16032010E+01 -0.95248609E+00  0.00000000E+00
  0.12005956E+01 -0.95088235E+00  0.00000000E+00
  0.79949479E+00 -0.94959820E+00  0.00000000E+00
  0.39948451E+00 -0.94880034E+00  0.00000000E+00
 -0.27721988E-09 -0.94867883E+00  0.00000000E+00
 -0.39948450E+00 -0.94880033E+00  0.00000000E+00
 -0.79949480E+00 -0.94959820E+00  0.00000000E+00
 -0.12005956E+01 -0.95088235E+00  0.00000000E+00
 -0.16032010E+01 -0.95248609E+00  0.00000000E+00
 -0.20075663E+01 -0.95420758E+00  0.00000000E+00
 -0.24137596E+01 -0.95581208E+00  0.00000000E+00
 -0.28216400E+01 -0.95704457E+00  0.00000000E+00
 -0.32308496E+01 -0.95764784E+00  0.00000000E+00
 -0.36408288E+01 -0.95738511E+00  0.00000000E+00
 -0.40508650E+01 -0.95606356E+00  0.00000000E+00
  0.40479927E+01 -0.19127469E+01  0.00000000E+00
  0.36376169E+01 -0.19152577E+01  0.00000000E+00
  0.32273954E+01 -0.19156321E+01  0.00000000E+00
  0.28181057E+01 -0.19142612E+01  0.00000000E+00
  0.24103277E+01 -0.19116308E+01  0.00000000E+00
  0.20044153E+01 -0.19082668E+01  0.00000000E+00
  0.16004901E+01 -0.19046893E+01  0.00000000E+00
  0.11984536E+01 -0.19013761E+01  0.00000000E+00
  0.79801273E+00 -0.18987382E+01  0.00000000E+00
  0.39871223E+00 -0.18971108E+01  0.00000000E+00
  0.38107081E-09 -0.18967366E+01  0.00000000E+00
 -0.39871223E+00 -0.18971108E+01  0.00000000E+00
 -0.79801273E+00 -0.18987382E+01  0.00000000E+00
 -0.11984536E+01 -0.19013761E+01  0.00000000E+00
 -0.16004901E+01 -0.19046893E+01  0.00000000E+00
 -0.20044153E+01 -0.19082668E+01  0.00000000E+00
 -0.24103277E+01 -0.19116308E+01  0.00000000E+00
 -0.28181057E+01 -0.19142612E+01  0.00000000E+00
 -0.32273954E+01 -0.19156321E+01  0.00000000E+00
 -0.36376169E+01 -0.19152577E+01  0.00000000E+00
 -0.40479927E+01 -0.19127469E+01  0.00000000E+00
  0.40432544E+01 -0.28704125E+01  0.00000000E+00
  0.36323670E+01 -0.28740099E+01  0.00000000E+00
  0.32217747E+01 -0.28742760E+01  0.00000000E+00
  0.28123454E+01 -0.28718510E+01  0.00000000E+00
  0.24047040E+01 -0.28675100E+01  0.00000000E+00
  0.19992121E+01 -0.28620798E+01  0.00000000E+00
  0.15959712E+01 -0.28563695E+01  0.00000000E+00
  0.11948441E+01 -0.28511165E+01  0.00000000E+00
  0.79548927E+00 -0.28469481E+01  0.00000000E+00
  0.39740765E+00 -0.28443520E+01  0.00000000E+00
 -0.43188416E-09 -0.28436487E+01  0.00000000E+00
 -0.39740765E+00 -0.28443520E+01  0.00000000E+00
 -0.79548927E+00 -0.28469481E+01  0.00000000E+00
 -0.11948441E+01 -0.28511165E+01  0.00000000E+00
 -0.15959712E+01 -0.28563695E+01  0.00000000E+00
 -0.19992121E+01 -0.28620798E+01  0.00000000E+00
 -0.24047040E+01 -0.28675100E+01  0.00000000E+00
 -0.28123454E+01 -0.28718510E+01  0.00000000E+00
 -0.32217747E+01 -0.28742760E+01  0.00000000E+00
 -0.36323670E+01 -0.28740099E+01  0.00000000E+00
 -0.40432544E+01 -0.28704125E+01  0.00000000E+00
  0.40367184E+01 -0.38296090E+01  0.00000000E+00
  0.36250874E+01 -0.38341120E+01  0.00000000E+00
  0.32139631E+01 -0.38339288E+01  0.00000000E+00
  0.28043303E+01 -0.38300121E+01  0.00000000E+00
  0.23968733E+01 -0.38234843E+01  0.00000000E+00
  0.19919631E+01 -0.38155206E+01  0.00000000E+00
  0.15896733E+01 -0.38072546E+01  0.00000000E+00
  0.11898141E+01 -0.37997063E+01  0.00000000E+00
  0.79197955E+00 -0.37937305E+01  0.00000000E+00
  0.39560064E+00 -0.37899784E+01  0.00000000E+00
  0.42226887E-09 -0.37888682E+01  0.00000000E+00
 -0.39560064E+00 -0.37899784E+01  0.00000000E+00
 -0.79197955E+00 -0.37937305E+01  0.00000000E+00
 -0.11898141E+01 -0.37997063E+01  0.00000000E+00
 -0.15896733E+01 -0.38072546E+01  0.00000000E+00
 -0.19919631E+01 -0.38155206E+01  0.00000000E+00
 -0.23968733E+01 -0.38234843E+01  0.00000000E+00
 -0.28043303E+01 -0.38300121E+01  0.00000000E+00
 -0.32139631E+01 -0.38339288E+01  0.00000000E+00
 -0.36250874E+01 -0.38341120E+01  0.00000000E+00
 -0.40367184E+01 -0.38296090E+01  0.00000000E+00
  0.40284751E+01 -0.47909861E+01  0.00000000E+00
  0.36158232E+01 -0.47961076E+01  0.00000000E+00
  0.32039782E+01 -0.47949782E+01  0.00000000E+00
  0.27940717E+01 -0.47889512E+01  0.00000000E+00
  0.23868562E+01 -0.47795749E+01  0.00000000E+00
  0.19827056E+01 -0.47684368E+01  0.00000000E+00
  0.15816488E+01 -0.47570413E+01  0.00000000E+00
  0.11834225E+01 -0.47467208E+01  0.00000000E+00
  0.78753265E+00 -0.47385749E+01  0.00000000E+00
  0.39331674E+00 -0.47334321E+01  0.00000000E+00
 -0.35722898E-09 -0.47318219E+01  0.00000000E+00
 -0.39331674E+00 -0.47334321E+01  0.00000000E+00
 -0.78753266E+00 -0.47385750E+01  0.00000000E+00
 -0.11834225E+01 -0.47467208E+01  0.00000000E+00
 -0.15816488E+01 -0.47570413E+01  0.00000000E+00
 -0.19827056E+01 -0.47684368E+01  0.00000000E+00
 -0.23868562E+01 -0.47795749E+01  0.00000000E+00
 -0.27940717E+01 -0.47889512E+01  0.00000000E+00
 -0.32039782E+01 -0.47949782E+01  0.00000000E+00
 -0.36158232E+01 -0.47961076E+01  0.00000000E+00
 -0.40284751E+01 -0.47909861E+01  0.00000000E+00
  0.40186845E+01 -0.57553184E+01  0.00000000E+00
  0.36046805E+01 -0.57606295E+01  0.00000000E+00
  0.31918961E+01 -0.57578602E+01  0.00000000E+00
  0.27816394E+01 -0.57488861E+01  0.00000000E+00
  0.23747330E+01 -0.57357872E+01  0.00000000E+00
  0.19715360E+01 -0.57206457E+01  0.00000000E+00
  0.15720047E+01 -0.57053930E+01  0.00000000E+00
  0.11757719E+01 -0.56917073E+01  0.00000000E+00
  0.78222880E+00 -0.56809508E+01  0.00000000E+00
  0.39059928E+00 -0.56741371E+01  0.00000000E+00
  0.24936850E-09 -0.56719145E+01  0.00000000E+00
 -0.39059928E+00 -0.56741371E+01  0.00000000E+00
 -0.78222880E+00 -0.56809508E+01  0.00000000E+00
 -0.11757719E+01 -0.56917073E+01  0.00000000E+00
 -0.15720047E+01 -0.57053930E+01  0.00000000E+00
 -0.19715360E+01 -0.57206457E+01  0.00000000E+00
 -0.23747330E+01 -0.57357872E+01  0.00000000E+00
 -0.27816394E+01 -0.57488861E+01  0.00000000E+00
 -0.31918961E+01 -0.57578602E+01  0.00000000E+00
 -0.36046805E+01 -0.57606295E+01  0.00000000E+00
 -0.40186845E+01 -0.57553184E+01  0.00000000E+00
  0.40076141E+01 -0.67235419E+01  0.00000000E+00
  0.35918596E+01 -0.67284207E+01  0.00000000E+00
  0.31778828E+01 -0.67230661E+01  0.00000000E+00
  0.27671963E+01 -0.67100425E+01  0.00000000E+00
  0.23606828E+01 -0.66921023E+01  0.00000000E+00
  0.19586526E+01 -0.66719248E+01  0.00000000E+00
  0.15609459E+01 -0.66519334E+01  0.00000000E+00
  0.11670505E+01 -0.66341840E+01  0.00000000E+00
  0.77621240E+00 -0.66203103E+01  0.00000000E+00
  0.38752661E+00 -0.66115085E+01  0.00000000E+00
 -0.11743800E-09 -0.66085423E+01  0.00000000E+00
 -0.38752661E+00 -0.66115085E+01  0.00000000E+00
 -0.77621240E+00 -0.66203103E+01  0.00000000E+00
 -0.11670505E+01 -0.66341840E+01  0.00000000E+00
 -0.15609459E+01 -0.66519334E+01  0.00000000E+00
 -0.19586526E+01 -0.66719248E+01  0.00000000E+00
 -0.23606828E+01 -0.66921023E+01  0.00000000E+00
 -0.27671963E+01 -0.67100425E+01  0.00000000E+00
 -0.31778828E+01 -0.67230661E+01  0.00000000E+00
 -0.35918596E+01 -0.67284207E+01  0.00000000E+00
 -0.40076141E+01 -0.67235419E+01  0.00000000E+00
  0.39956848E+01 -0.76967993E+01  0.00000000E+00
  0.35776970E+01 -0.77003592E+01  0.00000000E+00
  0.31622383E+01 -0.76911457E+01  0.00000000E+00
  0.27510486E+01 -0.76726430E+01  0.00000000E+00
  0.23450405E+01 -0.76484593E+01  0.00000000E+00
  0.19444164E+01 -0.76219968E+01  0.00000000E+00
  0.15488348E+01 -0.75962394E+01  0.00000000E+00
  0.11575837E+01 -0.75736429E+01  0.00000000E+00
  0.76973049E+00 -0.75561034E+01  0.00000000E+00
  0.38423236E+00 -0.75449768E+01  0.00000000E+00
 -0.17376982E-10 -0.75411220E+01  0.00000000E+00
 -0.38423236E+00 -0.75449768E+01  0.00000000E+00
 -0.76973049E+00 -0.75561034E+01  0.00000000E+00
 -0.11575837E+01 -0.75736429E+01  0.00000000E+00
 -0.15488348E+01 -0.75962394E+01  0.00000000E+00
 -0.19444164E+01 -0.76219968E+01  0.00000000E+00
 -0.23450405E+01 -0.76484593E+01  0.00000000E+00
 -0.27510486E+01 -0.76726430E+01  0.00000000E+00
 -0.31622383E+01 -0.76911457E+01  0.00000000E+00
 -0.35776970E+01 -0.77003592E+01  0.00000000E+00
 -0.39956848E+01 -0.76967993E+01  0.00000000E+00
  0.39835328E+01 -0.86764981E+01  0.00000000E+00
  0.35627239E+01 -0.86774840E+01  0.00000000E+00
  0.31454592E+01 -0.86627042E+01  0.00000000E+00
  0.27337170E+01 -0.86368834E+01  0.00000000E+00
  0.23283766E+01 -0.86047268E+01  0.00000000E+00
  0.19294346E+01 -0.85705077E+01  0.00000000E+00
  0.15362708E+01 -0.85378344E+01  0.00000000E+00
  0.11479016E+01 -0.85095616E+01  0.00000000E+00
  0.76318080E+00 -0.84878070E+01  0.00000000E+00
  0.38093038E+00 -0.84740309E+01  0.00000000E+00
  0.13538812E-09 -0.84691405E+01  0.00000000E+00
 -0.38093038E+00 -0.84740309E+01  0.00000000E+00
 -0.76318080E+00 -0.84878070E+01  0.00000000E+00
 -0.11479016E+01 -0.85095616E+01  0.00000000E+00
 -0.15362708E+01 -0.85378344E+01  0.00000000E+00
 -0.19294346E+01 -0.85705077E+01  0.00000000E+00
 -0.23283766E+01 -0.86047268E+01  0.00000000E+00
 -0.27337170E+01 -0.86368834E+01  0.00000000E+00
 -0.31454592E+01 -0.86627042E+01  0.00000000E+00
 -0.35627239E+01 -0.86774840E+01  0.00000000E+00
 -0.39835328E+01 -0.86764981E+01  0.00000000E+00
  0.39720941E+01 -0.96643889E+01  0.00000000E+00
  0.35477427E+01 -0.96610234E+01  0.00000000E+00
  0.31283234E+01 -0.96383841E+01  0.00000000E+00
  0.27160374E+01 -0.96028900E+01  0.00000000E+00
  0.23116099E+01 -0.95606568E+01  0.00000000E+00
  0.19146750E+01 -0.95169966E+01  0.00000000E+00
  0.15241946E+01 -0.94761845E+01  0.00000000E+00
  0.11388231E+01 -0.94414288E+01  0.00000000E+00
  0.75716950E+00 -0.94149758E+01  0.00000000E+00
  0.37794405E+00 -0.93982867E+01  0.00000000E+00
 -0.22249927E-09 -0.93922314E+01  0.00000000E+00
 -0.37794405E+00 -0.93982867E+01  0.00000000E+00
 -0.75716950E+00 -0.94149758E+01  0.00000000E+00
 -0.11388231E+01 -0.94414288E+01  0.00000000E+00
 -0.15241946E+01 -0.94761845E+01  0.00000000E+00
 -0.19146750E+01 -0.95169966E+01  0.00000000E+00
 -0.23116099E+01 -0.95606568E+01  0.00000000E+00
 -0.27160374E+01 -0.96028900E+01  0.00000000E+00
 -0.31283234E+01 -0.96383841E+01  0.00000000E+00
 -0.35477427E+01 -0.96610234E+01  0.00000000E+00
 -0.39720941E+01 -0.96643889E+01  0.00000000E+00
  0.39627232E+01 -0.10662679E+02  0.00000000E+00
  0.35339351E+01 -0.10652424E+02  0.00000000E+00
  0.31120120E+01 -0.10618825E+02  0.00000000E+00
  0.26993042E+01 -0.10570646E+02  0.00000000E+00
  0.22961651E+01 -0.10515818E+02  0.00000000E+00
  0.19016198E+01 -0.10460860E+02  0.00000000E+00
  0.15140193E+01 -0.10410705E+02  0.00000000E+00
  0.11315532E+01 -0.10368791E+02  0.00000000E+00
  0.75257351E+00 -0.10337320E+02  0.00000000E+00
  0.37573579E+00 -0.10317585E+02  0.00000000E+00
  0.27283485E-09 -0.10310285E+02  0.00000000E+00
 -0.37573579E+00 -0.10317585E+02  0.00000000E+00
 -0.75257351E+00 -0.10337320E+02  0.00000000E+00
 -0.11315532E+01 -0.10368791E+02  0.00000000E+00
 -0.15140193E+01 -0.10410705E+02  0.00000000E+00
 -0.19016198E+01 -0.10460860E+02  0.00000000E+00
 -0.22961651E+01 -0.10515818E+02  0.00000000E+00
 -0.26993042E+01 -0.10570646E+02  0.00000000E+00
 -0.31120120E+01 -0.10618825E+02  0.00000000E+00
 -0.35339351E+01 -0.10652424E+02  0.00000000E+00
 -0.39627232E+01 -0.10662679E+02  0.00000000E+00
  0.39573690E+01 -0.11674205E+02  0.00000000E+00
  0.35230189E+01 -0.11653374E+02  0.00000000E+00
  0.30982910E+01 -0.11604585E+02  0.00000000E+00
  0.26854864E+01 -0.11539877E+02  0.00000000E+00
  0.22841987E+01 -0.11469500E+02  0.00000000E+00
  0.18924682E+01 -0.11401317E+02  0.00000000E+00
  0.15077854E+01 -0.11340792E+02  0.00000000E+00
  0.11277832E+01 -0.11291334E+02  0.00000000E+00
  0.75059268E+00 -0.11254818E+02  0.00000000E+00
  0.37492765E+00 -0.11232123E+02  0.00000000E+00
 -0.28894093E-09 -0.11223589E+02  0.00000000E+00
 -0.37492765E+00 -0.11232123E+02  0.00000000E+00
 -0.75059268E+00 -0.11254818E+02  0.00000000E+00
 -0.11277832E+01 -0.11291334E+02  0.00000000E+00
 -0.15077854E+01 -0.11340792E+02  0.00000000E+00
 -0.18924682E+01 -0.11401317E+02  0.00000000E+00
 -0.22841987E+01 -0.11469500E+02  0.00000000E+00
 -0.26854864E+01 -0.11539877E+02  0.00000000E+00
 -0.30982910E+01 -0.11604585E+02  0.00000000E+00
 -0.35230189E+01 -0.11653374E+02  0.00000000E+00
 -0.39573690E+01 -0.11674205E+02  0.00000000E+00
  0.39588537E+01 -0.12702713E+02  0.00000000E+00
  0.35174943E+01 -0.12665818E+02  0.00000000E+00
  0.30898025E+01 -0.12595985E+02  0.00000000E+00
  0.26775586E+01 -0.12509867E+02  0.00000000E+00
  0.22789195E+01 -0.12420605E+02  0.00000000E+00
  0.18903883E+01 -0.12337402E+02  0.00000000E+00
  0.15083143E+01 -0.12265904E+02  0.00000000E+00
  0.11297546E+01 -0.12209024E+02  0.00000000E+00
  0.75276074E+00 -0.12167879E+02  0.00000000E+00
  0.37629527E+00 -0.12142612E+02  0.00000000E+00
  0.28035662E-09 -0.12132994E+02  0.00000000E+00
 -0.37629527E+00 -0.12142612E+02  0.00000000E+00
 -0.75276074E+00 -0.12167879E+02  0.00000000E+00
 -0.11297546E+01 -0.12209024E+02  0.00000000E+00
 -0.15083143E+01 -0.12265904E+02  0.00000000E+00
 -0.18903883E+01 -0.12337402E+02  0.00000000E+00
 -0.22789195E+01 -0.12420605E+02  0.00000000E+00
 -0.26775586E+01 -0.12509867E+02  0.00000000E+00
 -0.30898025E+01 -0.12595985E+02  0.00000000E+00
 -0.35174943E+01 -0.12665818E+02  0.00000000E+00
 -0.39588537E+01 -0.12702713E+02  0.00000000E+00
  0.39713487E+01 -0.13753316E+02  0.00000000E+00
  0.35210672E+01 -0.13691917E+02  0.00000000E+00
  0.30905606E+01 -0.13592844E+02  0.00000000E+00
  0.26800319E+01 -0.13479196E+02  0.00000000E+00
  0.22850373E+01 -0.13367534E+02  0.00000000E+00
  0.18997898E+01 -0.13268038E+02  0.00000000E+00
  0.15192935E+01 -0.13185762E+02  0.00000000E+00
  0.11402188E+01 -0.13122333E+02  0.00000000E+00
  0.76086291E+00 -0.13077533E+02  0.00000000E+00
  0.38071032E+00 -0.13050436E+02  0.00000000E+00
 -0.25943520E-09 -0.13040057E+02  0.00000000E+00
 -0.38071032E+00 -0.13050436E+02  0.00000000E+00
 -0.76086291E+00 -0.13077533E+02  0.00000000E+00
 -0.11402188E+01 -0.13122333E+02  0.00000000E+00
 -0.15192935E+01 -0.13185762E+02  0.00000000E+00
 -0.18997898E+01 -0.13268038E+02  0.00000000E+00
 -0.22850373E+01 -0.13367534E+02  0.00000000E+00
 -0.26800319E+01 -0.13479196E+02  0.00000000E+00
 -0.30905606E+01 -0.13592844E+02  0.00000000E+00
 -0.35210672E+01 -0.13691917E+02  0.00000000E+00
 -0.39713487E+01 -0.13753316E+02  0.00000000E+00
  0.40012441E+01 -0.14833266E+02  0.00000000E+00
  0.35394347E+01 -0.14733902E+02  0.00000000E+00
  0.31068478E+01 -0.14593998E+02  0.00000000E+00
  0.26998123E+01 -0.14445408E+02  0.00000000E+00
  0.23093399E+01 -0.14308200E+02  0.00000000E+00
  0.19265033E+01 -0.14192329E+02  0.00000000E+00
  0.15451383E+01 -0.14100729E+02  0.00000000E+00
  0.11621690E+01 -0.14032554E+02  0.00000000E+00
  0.77669542E+00 -0.13985630E+02  0.00000000E+00
  0.38900619E+00 -0.13957752E+02  0.00000000E+00
  0.23820137E-09 -0.13947114E+02  0.00000000E+00
 -0.38900619E+00 -0.13957752E+02  0.00000000E+00
 -0.77669542E+00 -0.13985630E+02  0.00000000E+00
 -0.11621690E+01 -0.14032554E+02  0.00000000E+00
 -0.15451383E+01 -0.14100729E+02  0.00000000E+00
 -0.19265033E+01 -0.14192329E+02  0.00000000E+00
 -0.23093399E+01 -0.14308200E+02  0.00000000E+00
 -0.26998123E+01 -0.14445408E+02  0.00000000E+00
 -0.31068478E+01 -0.14593998E+02  0.00000000E+00
 -0.35394347E+01 -0.14733902E+02  0.00000000E+00
 -0.40012441E+01 -0.14833266E+02  0.00000000E+00
  0.40588452E+01 -0.15953231E+02  0.00000000E+00
  0.35818518E+01 -0.15793636E+02  0.00000000E+00
  0.31489028E+01 -0.15596514E+02  0.00000000E+00
  0.27475599E+01 -0.15404721E+02  0.00000000E+00
  0.23612481E+01 -0.15240423E+02  0.00000000E+00
  0.19775163E+01 -0.15110316E+02  0.00000000E+00
  0.15903376E+01 -0.15012470E+02  0.00000000E+00
  0.11982084E+01 -0.14942159E+02  0.00000000E+00
  0.80162010E+00 -0.14894948E+02  0.00000000E+00
  0.40175511E+00 -0.14867452E+02  0.00000000E+00
 -0.22391379E-09 -0.14857198E+02  0.00000000E+00
 -0.40175511E+00 -0.14867452E+02  0.00000000E+00
 -0.80162010E+00 -0.14894948E+02  0.00000000E+00
 -0.11982084E+01 -0.14942159E+02  0.00000000E+00
 -0.15903376E+01 -0.15012470E+02  0.00000000E+00
 -0.19775163E+01 -0.15110316E+02  0.00000000E+00
 -0.23612481E+01 -0.15240423E+02  0.00000000E+00
 -0.27475599E+01 -0.15404721E+02  0.00000000E+00
 -0.31489028E+01 -0.15596514E+02  0.00000000E+00
 -0.35818518E+01 -0.15793636E+02  0.00000000E+00
 -0.40588452E+01 -0.15953231E+02  0.00000000E+00
  0.41618496E+01 -0.17129352E+02  0.00000000E+00
  0.36644400E+01 -0.16871512E+02  0.00000000E+00
  0.32341918E+01 -0.16594511E+02  0.00000000E+00
  0.28396133E+01 -0.16352276E+02  0.00000000E+00
  0.24525721E+01 -0.16163457E+02  0.00000000E+00
  0.20594382E+01 -0.16024520E+02  0.00000000E+00
  0.16579822E+01 -0.15924715E+02  0.00000000E+00
  0.12495022E+01 -0.15854974E+02  0.00000000E+00
  0.83592858E+00 -0.15809046E+02  0.00000000E+00
  0.41897377E+00 -0.15782884E+02  0.00000000E+00
  0.21866229E-09 -0.15773723E+02  0.00000000E+00
 -0.41897378E+00 -0.15782884E+02  0.00000000E+00
 -0.83592858E+00 -0.15809046E+02  0.00000000E+00
 -0.12495022E+01 -0.15854974E+02  0.00000000E+00
 -0.16579822E+01 -0.15924715E+02  0.00000000E+00
 -0.20594382E+01 -0.16024520E+02  0.00000000E+00
 -0.24525721E+01 -0.16163457E+02  0.00000000E+00
 -0.28396133E+01 -0.16352276E+02  0.00000000E+00
 -0.32341918E+01 -0.16594511E+02  0.00000000E+00
 -0.36644400E+01 -0.16871512E+02  0.00000000E+00
 -0.41618496E+01 -0.17129352E+02  0.00000000E+00
  0.43427722E+01 -0.18386271E+02  0.00000000E+00
  0.38175730E+01 -0.17963823E+02  0.00000000E+00
  0.33939974E+01 -0.17577775E+02  0.00000000E+00
  0.29992506E+01 -0.17284890E+02  0.00000000E+00
  0.25934975E+01 -0.17082280E+02  0.00000000E+00
  0.21749810E+01 -0.16941707E+02  0.00000000E+00
  0.17474923E+01 -0.16843506E+02  0.00000000E+00
  0.13144444E+01 -0.16775825E+02  0.00000000E+00
  0.87811787E+00 -0.16731728E+02  0.00000000E+00
  0.43980531E+00 -0.16707235E+02  0.00000000E+00
 -0.21781211E-09 -0.16699892E+02  0.00000000E+00
 -0.43980531E+00 -0.16707235E+02  0.00000000E+00
 -0.87811787E+00 -0.16731728E+02  0.00000000E+00
 -0.13144444E+01 -0.16775825E+02  0.00000000E+00
 -0.17474923E+01 -0.16843506E+02  0.00000000E+00
 -0.21749810E+01 -0.16941707E+02  0.00000000E+00
 -0.25934975E+01 -0.17082280E+02  0.00000000E+00
 -0.29992506E+01 -0.17284890E+02  0.00000000E+00
 -0.33939974E+01 -0.17577775E+02  0.00000000E+00
 -0.38175730E+01 -0.17963823E+02  0.00000000E+00
 -0.43427722E+01 -0.18386271E+02  0.00000000E+00
  0.46643255E+01 -0.19760874E+02  0.00000000E+00
  0.41048912E+01 -0.19055579E+02  0.00000000E+00
  0.36880185E+01 -0.18532088E+02  0.00000000E+00
  0.32433935E+01 -0.18216207E+02  0.00000000E+00
  0.27833411E+01 -0.18011835E+02  0.00000000E+00
  0.23179791E+01 -0.17872816E+02  0.00000000E+00
  0.18520549E+01 -0.17776079E+02  0.00000000E+00
  0.13873665E+01 -0.17709365E+02  0.00000000E+00