# vtk DataFile Version 2.0
MEF - Elasticidade Plana 2D
ASCII
DATASET UNSTRUCTURED_GRID
POINTS        4 float
  0.00000000E+00  0.00000000E+00  0.00000000E+00
  0.00000000E+00  0.10000000E+01  0.00000000E+00
  0.10000000E+01  0.10000000E+01  0.00000000E+00
  0.10000000E+01  0.00000000E+00  0.00000000E+00
CELLS        2       8
       3       0       3       2
       3       0       2       1
CELL_TYPES        2
 5
 5
POINT_DATA        4
VECTORS Deslocamentos float
  0.30000000E+00 -0.20000000E+01  0.00000000E+00
  0.30000000E+00  0.00000000E+00  0.00000000E+00
 -0.30000000E+00  0.00000000E+00  0.00000000E+00
 -0.30000000E+00 -0.20000000E+01  0.00000000E+00
SCALARS SX float 1
LOOKUP_TABLE default
  0.11102230E-15
  0.11102230E-15
  0.11102230E-15
  0.11102230E-15
SCALARS SY float 1
LOOKUP_TABLE default
  0.20000000E+01
  0.20000000E+01
  0.20000000E+01
  0.20000000E+01
SCALARS TXY float 1
LOOKUP_TABLE default
 -0.32025664E-16
  0.00000000E+00
 -0.32025664E-16
 -0.64051328E-16
