# vtk DataFile Version 2.0
MEF - Elasticidade Plana 2D
ASCII
DATASET UNSTRUCTURED_GRID
POINTS      121 float
  0.00000000E+00  0.10000000E+01  0.00000000E+00
  0.10000000E+00  0.10000000E+01  0.00000000E+00
  0.20000000E+00  0.10000000E+01  0.00000000E+00
  0.30000000E+00  0.10000000E+01  0.00000000E+00
  0.40000000E+00  0.10000000E+01  0.00000000E+00
  0.50000000E+00  0.10000000E+01  0.00000000E+00
  0.60000000E+00  0.10000000E+01  0.00000000E+00
  0.70000000E+00  0.10000000E+01  0.00000000E+00
  0.80000000E+00  0.10000000E+01  0.00000000E+00
  0.90000000E+00  0.10000000E+01  0.00000000E+00
  0.10000000E+01  0.10000000E+01  0.00000000E+00
  0.00000000E+00  0.90000000E+00  0.00000000E+00
  0.10000000E+00  0.90000000E+00  0.00000000E+00
  0.20000000E+00  0.90000000E+00  0.00000000E+00
  0.30000000E+00  0.90000000E+00  0.00000000E+00
  0.40000000E+00  0.90000000E+00  0.00000000E+00
  0.50000000E+00  0.90000000E+00  0.00000000E+00
  0.60000000E+00  0.90000000E+00  0.00000000E+00
  0.70000000E+00  0.90000000E+00  0.00000000E+00
  0.80000000E+00  0.90000000E+00  0.00000000E+00
  0.90000000E+00  0.90000000E+00  0.00000000E+00
  0.10000000E+01  0.90000000E+00  0.00000000E+00
  0.00000000E+00  0.80000000E+00  0.00000000E+00
  0.10000000E+00  0.80000000E+00  0.00000000E+00
  0.20000000E+00  0.80000000E+00  0.00000000E+00
  0.30000000E+00  0.80000000E+00  0.00000000E+00
  0.40000000E+00  0.80000000E+00  0.00000000E+00
  0.50000000E+00  0.80000000E+00  0.00000000E+00
  0.60000000E+00  0.80000000E+00  0.00000000E+00
  0.70000000E+00  0.80000000E+00  0.00000000E+00
  0.80000000E+00  0.80000000E+00  0.00000000E+00
  0.90000000E+00  0.80000000E+00  0.00000000E+00
  0.10000000E+01  0.80000000E+00  0.00000000E+00
  0.00000000E+00  0.70000000E+00  0.00000000E+00
  0.10000000E+00  0.70000000E+00  0.00000000E+00
  0.20000000E+00  0.70000000E+00  0.00000000E+00
  0.30000000E+00  0.70000000E+00  0.00000000E+00
  0.40000000E+00  0.70000000E+00  0.00000000E+00
  0.50000000E+00  0.70000000E+00  0.00000000E+00
  0.60000000E+00  0.70000000E+00  0.00000000E+00
  0.70000000E+00  0.70000000E+00  0.00000000E+00
  0.80000000E+00  0.70000000E+00  0.00000000E+00
  0.90000000E+00  0.70000000E+00  0.00000000E+00
  0.10000000E+01  0.70000000E+00  0.00000000E+00
  0.00000000E+00  0.60000000E+00  0.00000000E+00
  0.10000000E+00  0.60000000E+00  0.00000000E+00
  0.20000000E+00  0.60000000E+00  0.00000000E+00
  0.30000000E+00  0.60000000E+00  0.00000000E+00
  0.40000000E+00  0.60000000E+00  0.00000000E+00
  0.50000000E+00  0.60000000E+00  0.00000000E+00
  0.60000000E+00  0.60000000E+00  0.00000000E+00
  0.70000000E+00  0.60000000E+00  0.00000000E+00
  0.80000000E+00  0.60000000E+00  0.00000000E+00
  0.90000000E+00  0.60000000E+00  0.00000000E+00
  0.10000000E+01  0.60000000E+00  0.00000000E+00
  0.00000000E+00  0.50000000E+00  0.00000000E+00
  0.10000000E+00  0.50000000E+00  0.00000000E+00
  0.20000000E+00  0.50000000E+00  0.00000000E+00
  0.30000000E+00  0.50000000E+00  0.00000000E+00
  0.40000000E+00  0.50000000E+00  0.00000000E+00
  0.50000000E+00  0.50000000E+00  0.00000000E+00
  0.60000000E+00  0.50000000E+00  0.00000000E+00
  0.70000000E+00  0.50000000E+00  0.00000000E+00
  0.80000000E+00  0.50000000E+00  0.00000000E+00
  0.90000000E+00  0.50000000E+00  0.00000000E+00
  0.10000000E+01  0.50000000E+00  0.00000000E+00
  0.00000000E+00  0.40000000E+00  0.00000000E+00
  0.10000000E+00  0.40000000E+00  0.00000000E+00
  0.20000000E+00  0.40000000E+00  0.00000000E+00
  0.30000000E+00  0.40000000E+00  0.00000000E+00
  0.40000000E+00  0.40000000E+00  0.00000000E+00
  0.50000000E+00  0.40000000E+00  0.00000000E+00
  0.60000000E+00  0.40000000E+00  0.00000000E+00
  0.70000000E+00  0.40000000E+00  0.00000000E+00
  0.80000000E+00  0.40000000E+00  0.00000000E+00
  0.90000000E+00  0.40000000E+00  0.00000000E+00
  0.10000000E+01  0.40000000E+00  0.00000000E+00
  0.00000000E+00  0.30000000E+00  0.00000000E+00
  0.10000000E+00  0.30000000E+00  0.00000000E+00
  0.20000000E+00  0.30000000E+00  0.00000000E+00
  0.30000000E+00  0.30000000E+00  0.00000000E+00
  0.40000000E+00  0.30000000E+00  0.00000000E+00
  0.50000000E+00  0.30000000E+00  0.00000000E+00
  0.60000000E+00  0.30000000E+00  0.00000000E+00
  0.70000000E+00  0.30000000E+00  0.00000000E+00
  0.80000000E+00  0.30000000E+00  0.00000000E+00
  0.90000000E+00  0.30000000E+00  0.00000000E+00
  0.10000000E+01  0.30000000E+00  0.00000000E+00
  0.00000000E+00  0.20000000E+00  0.00000000E+00
  0.10000000E+00  0.20000000E+00  0.00000000E+00
  0.20000000E+00  0.20000000E+00  0.00000000E+00
  0.30000000E+00  0.20000000E+00  0.00000000E+00
  0.40000000E+00  0.20000000E+00  0.00000000E+00
  0.50000000E+00  0.20000000E+00  0.00000000E+00
  0.60000000E+00  0.20000000E+00  0.00000000E+00
  0.70000000E+00  0.20000000E+00  0.00000000E+00
  0.80000000E+00  0.20000000E+00  0.00000000E+00
  0.90000000E+00  0.20000000E+00  0.00000000E+00
  0.10000000E+01  0.20000000E+00  0.00000000E+00
  0.00000000E+00  0.10000000E+00  0.00000000E+00
  0.10000000E+00  0.10000000E+00  0.00000000E+00
  0.20000000E+00  0.10000000E+00  0.00000000E+00
  0.30000000E+00  0.10000000E+00  0.00000000E+00
  0.40000000E+00  0.10000000E+00  0.00000000E+00
  0.50000000E+00  0.10000000E+00  0.00000000E+00
  0.60000000E+00  0.10000000E+00  0.00000000E+00
  0.70000000E+00  0.10000000E+00  0.00000000E+00
  0.80000000E+00  0.10000000E+00  0.00000000E+00
  0.90000000E+00  0.10000000E+00  0.00000000E+00
  0.10000000E+01  0.10000000E+00  0.00000000E+00
  0.00000000E+00  0.00000000E+00  0.00000000E+00
  0.10000000E+00  0.00000000E+00  0.00000000E+00
  0.20000000E+00  0.00000000E+00  0.00000000E+00
  0.30000000E+00  0.00000000E+00  0.00000000E+00
  0.40000000E+00  0.00000000E+00  0.00000000E+00
  0.50000000E+00  0.00000000E+00  0.00000000E+00
  0.60000000E+00  0.00000000E+00  0.00000000E+00
  0.70000000E+00  0.00000000E+00  0.00000000E+00
  0.80000000E+00  0.00000000E+00  0.00000000E+00
  0.90000000E+00  0.00000000E+00  0.00000000E+00
  0.10000000E+01  0.00000000E+00  0.00000000E+00
CELLS      200     800
       3       0      11      12
       3       0      12       1
       3       1      12      13
       3       1      13       2
       3       2      13      14
       3       2      14       3
       3       3      14      15
       3       3      15       4
       3       4      15      16
       3       4      16       5
       3       5      16      17
       3       5      17       6
       3       6      17      18
       3       6      18       7
       3       7      18      19
       3       7      19       8
       3       8      19      20
       3       8      20       9
       3       9      20      21
       3       9      21      10
       3      11      22      23
       3      11      23      12
       3      12      23      24
       3      12      24      13
       3      13      24      25
       3      13      25      14
       3      14      25      26
       3      14      26      15
       3      15      26      27
       3      15      27      16
       3      16      27      28
       3      16      28      17
       3      17      28      29
       3      17      29      18
       3      18      29      30
       3      18      30      19
       3      19      30      31
       3      19      31      20
       3      20      31      32
       3      20      32      21
       3      22      33      34
       3      22      34      23
       3      23      34      35
       3      23      35      24
       3      24      35      36
       3      24      36      25
       3      25      36      37
       3      25      37      26
       3      26      37      38
       3      26      38      27
       3      27      38      39
       3      27      39      28
       3      28      39      40
       3      28      40      29
       3      29      40      41
       3      29      41      30
       3      30      41      42
       3      30      42      31
       3      31      42      43
       3      31      43      32
       3      33      44      45
       3      33      45      34
       3      34      45      46
       3      34      46      35
       3      35      46      47
       3      35      47      36
       3      36      47      48
       3      36      48      37
       3      37      48      49
       3      37      49      38
       3      38      49      50
       3      38      50      39
       3      39      50      51
       3      39      51      40
       3      40      51      52
       3      40      52      41
       3      41      52      53
       3      41      53      42
       3      42      53      54
       3      42      54      43
       3      44      55      56
       3      44      56      45
       3      45      56      57
       3      45      57      46
       3      46      57      58
       3      46      58      47
       3      47      58      59
       3      47      59      48
       3      48      59      60
       3      48      60      49
       3      49      60      61
       3      49      61      50
       3      50      61      62
       3      50      62      51
       3      51      62      63
       3      51      63      52
       3      52      63      64
       3      52      64      53
       3      53      64      65
       3      53      65      54
       3      55      66      67
       3      55      67      56
       3      56      67      68
       3      56      68      57
       3      57      68      69
       3      57      69      58
       3      58      69      70
       3      58      70      59
       3      59      70      71
       3      59      71      60
       3      60      71      72
       3      60      72      61
       3      61      72      73
       3      61      73      62
       3      62      73      74
       3      62      74      63
       3      63      74      75
       3      63      75      64
       3      64      75      76
       3      64      76      65
       3      66      77      78
       3      66      78      67
       3      67      78      79
       3      67      79      68
       3      68      79      80
       3      68      80      69
       3      69      80      81
       3      69      81      70
       3      70      81      82
       3      70      82      71
       3      71      82      83
       3      71      83      72
       3      72      83      84
       3      72      84      73
       3      73      84      85
       3      73      85      74
       3      74      85      86
       3      74      86      75
       3      75      86      87
       3      75      87      76
       3      77      88      89
       3      77      89      78
       3      78      89      90
       3      78      90      79
       3      79      90      91
       3      79      91      80
       3      80      91      92
       3      80      92      81
       3      81      92      93
       3      81      93      82
       3      82      93      94
       3      82      94      83
       3      83      94      95
       3      83      95      84
       3      84      95      96
       3      84      96      85
       3      85      96      97
       3      85      97      86
       3      86      97      98
       3      86      98      87
       3      88      99     100
       3      88     100      89
       3      89     100     101
       3      89     101      90
       3      90     101     102
       3      90     102      91
       3      91     102     103
       3      91     103      92
       3      92     103     104
       3      92     104      93
       3      93     104     105
       3      93     105      94
       3      94     105     106
       3      94     106      95
       3      95     106     107
       3      95     107      96
       3      96     107     108
       3      96     108      97
       3      97     108     109
       3      97     109      98
       3      99     110     111
       3      99     111     100
       3     100     111     112
       3     100     112     101
       3     101     112     113
       3     101     113     102
       3     102     113     114
       3     102     114     103
       3     103     114     115
       3     103     115     104
       3     104     115     116
       3     104     116     105
       3     105     116     117
       3     105     117     106
       3     106     117     118
       3     106     118     107
       3     107     118     119
       3     107     119     108
       3     108     119     120
       3     108     120     109
CELL_TYPES      200
 5
 5
 5
 5
 5
 5
 5
 5
 5
 5
 5
 5
 5
 5
 5
 5
 5
 5
 5
 5
 5
 5
 5
 5
 5
 5
 5
 5
 5
 5
 5
 5
 5
 5
 5
 5
 5
 5
 5
 5
 5
 5
 5
 5
 5
 5
 5
 5
 5
 5
 5
 5
 5
 5
 5
 5
 5
 5
 5
 5
 5
 5
 5
 5
 5
 5
 5
 5
 5
 5
 5
 5
 5
 5
 5
 5
 5
 5
 5
 5
 5
 5
 5
 5
 5
 5
 5
 5
 5
 5
 5
 5
 5
 5
 5
 5
 5
 5
 5
 5
 5
 5
 5
 5
 5
 5
 5
 5
 5
 5
 5
 5
 5
 5
 5
 5
 5
 5
 5
 5
 5
 5
 5
 5
 5
 5
 5
 5
 5
 5
 5
 5
 5
 5
 5
 5
 5
 5
 5
 5
 5
 5
 5
 5
 5
 5
 5
 5
 5
 5
 5
 5
 5
 5
 5
 5
 5
 5
 5
 5
 5
 5
 5
 5
 5
 5
 5
 5
 5
 5
 5
 5
 5
 5
 5
 5
 5
 5
 5
 5
 5
 5
 5
 5
 5
 5
 5
 5
 5
 5
 5
 5
 5
 5
 5
 5
 5
 5
 5
 5
POINT_DATA      121
VECTORS Deslocamentos float
  0.00000000E+00  0.00000000E+00  0.00000000E+00
  0.42481463E+00 -0.53451862E+00  0.00000000E+00
  0.67981932E+00 -0.93703620E+00  0.00000000E+00
  0.85577257E+00 -0.13057120E+01  0.00000000E+00
  0.98221330E+00 -0.16546913E+01  0.00000000E+00
  0.10733998E+01 -0.19869138E+01  0.00000000E+00
  0.11382920E+01 -0.23022077E+01  0.00000000E+00
  0.11840522E+01 -0.25995901E+01  0.00000000E+00
  0.12175062E+01 -0.28787786E+01  0.00000000E+00
  0.12456425E+01 -0.31418368E+01  0.00000000E+00
  0.12749644E+01 -0.33950737E+01  0.00000000E+00
  0.00000000E+00  0.00000000E+00  0.00000000E+00
  0.19157082E+00 -0.38125083E+00  0.00000000E+00
  0.39548346E+00 -0.79164215E+00  0.00000000E+00
  0.55812183E+00 -0.11728855E+01  0.00000000E+00
  0.68429913E+00 -0.15321551E+01  0.00000000E+00
  0.78109969E+00 -0.18726445E+01  0.00000000E+00
  0.85466856E+00 -0.21945135E+01  0.00000000E+00
  0.91036990E+00 -0.24968676E+01  0.00000000E+00
  0.95312972E+00 -0.27792622E+01  0.00000000E+00
  0.98772959E+00 -0.30432355E+01  0.00000000E+00
  0.10192092E+01 -0.32943956E+01  0.00000000E+00
  0.00000000E+00  0.00000000E+00  0.00000000E+00
  0.10591988E+00 -0.31959736E+00  0.00000000E+00
  0.22980401E+00 -0.68633549E+00  0.00000000E+00
  0.35157873E+00 -0.10589190E+01  0.00000000E+00
  0.45670374E+00 -0.14196931E+01  0.00000000E+00
  0.54299499E+00 -0.17645542E+01  0.00000000E+00
  0.61199053E+00 -0.20912740E+01  0.00000000E+00
  0.66632434E+00 -0.23979350E+01  0.00000000E+00
  0.70897619E+00 -0.26832616E+01  0.00000000E+00
  0.74329046E+00 -0.29473578E+01  0.00000000E+00
  0.77372528E+00 -0.31926935E+01  0.00000000E+00
  0.00000000E+00  0.00000000E+00  0.00000000E+00
  0.57667917E-01 -0.28637908E+00  0.00000000E+00
  0.12894315E+00 -0.61922022E+00  0.00000000E+00
  0.20693943E+00 -0.97214275E+00  0.00000000E+00
  0.28198366E+00 -0.13261410E+01  0.00000000E+00
  0.34828024E+00 -0.16705049E+01  0.00000000E+00
  0.40411860E+00 -0.19993429E+01  0.00000000E+00
  0.44983206E+00 -0.23087828E+01  0.00000000E+00
  0.48673404E+00 -0.25960740E+01  0.00000000E+00
  0.51690279E+00 -0.28592955E+01  0.00000000E+00
  0.54377955E+00 -0.30970051E+01  0.00000000E+00
  0.00000000E+00  0.00000000E+00  0.00000000E+00
  0.23269287E-01 -0.26484525E+00  0.00000000E+00
  0.56808258E-01 -0.57411705E+00  0.00000000E+00
  0.98057796E-01 -0.90932072E+00  0.00000000E+00
  0.14201678E+00 -0.12535549E+01  0.00000000E+00
  0.18425843E+00 -0.15941841E+01  0.00000000E+00
  0.22226261E+00 -0.19226444E+01  0.00000000E+00
  0.25515439E+00 -0.22331024E+01  0.00000000E+00
  0.28307691E+00 -0.25212345E+01  0.00000000E+00
  0.30692285E+00 -0.27831943E+01  0.00000000E+00
  0.32861617E+00 -0.30142379E+01  0.00000000E+00
  0.00000000E+00  0.00000000E+00  0.00000000E+00
 -0.57859178E-02 -0.24909846E+00  0.00000000E+00
 -0.34985967E-02 -0.54255062E+00  0.00000000E+00
  0.59090759E-02 -0.86486092E+00  0.00000000E+00
  0.20390423E-01 -0.12004572E+01  0.00000000E+00
  0.37635532E-01 -0.15363832E+01  0.00000000E+00
  0.55815559E-01 -0.18628793E+01  0.00000000E+00
  0.73825720E-01 -0.21728513E+01  0.00000000E+00
  0.91138834E-01 -0.24608793E+01  0.00000000E+00
  0.10758270E+00 -0.27219211E+01  0.00000000E+00
  0.12326846E+00 -0.29493916E+01  0.00000000E+00
  0.00000000E+00  0.00000000E+00  0.00000000E+00
 -0.34386626E-01 -0.23704287E+00  0.00000000E+00
 -0.62167151E-01 -0.52091164E+00  0.00000000E+00
 -0.83131823E-01 -0.83536848E+00  0.00000000E+00
 -0.97169929E-01 -0.11648999E+01  0.00000000E+00
 -0.10477305E+00 -0.14965812E+01  0.00000000E+00
 -0.10682264E+00 -0.18203653E+01  0.00000000E+00
 -0.10427366E+00 -0.21287223E+01  0.00000000E+00
 -0.98053795E-01 -0.24159035E+01  0.00000000E+00
 -0.89259506E-01 -0.26767673E+01  0.00000000E+00
 -0.79615943E-01 -0.29047983E+01  0.00000000E+00
  0.00000000E+00  0.00000000E+00  0.00000000E+00
 -0.67097242E-01 -0.22874643E+00  0.00000000E+00
 -0.12827155E+00 -0.50877037E+00  0.00000000E+00
 -0.18133312E+00 -0.81984658E+00  0.00000000E+00
 -0.22421929E+00 -0.11457840E+01  0.00000000E+00
 -0.25620699E+00 -0.14739491E+01  0.00000000E+00
 -0.27773401E+00 -0.17946098E+01  0.00000000E+00
 -0.28990586E+00 -0.21004388E+01  0.00000000E+00
 -0.29417542E+00 -0.23860522E+01  0.00000000E+00
 -0.29248332E+00 -0.26473036E+01  0.00000000E+00
 -0.28810924E+00 -0.28797720E+01  0.00000000E+00
  0.00000000E+00  0.00000000E+00  0.00000000E+00
 -0.11061062E+00 -0.22674545E+00  0.00000000E+00
 -0.21366687E+00 -0.50847514E+00  0.00000000E+00
 -0.30322494E+00 -0.81920878E+00  0.00000000E+00
 -0.37581579E+00 -0.11427308E+01  0.00000000E+00
 -0.43077818E+00 -0.14673915E+01  0.00000000E+00
 -0.46929908E+00 -0.17842988E+01  0.00000000E+00
 -0.49354241E+00 -0.20867085E+01  0.00000000E+00
 -0.50609942E+00 -0.23699244E+01  0.00000000E+00
 -0.50990796E+00 -0.26314180E+01  0.00000000E+00
 -0.50921309E+00 -0.28705397E+01  0.00000000E+00
  0.00000000E+00  0.00000000E+00  0.00000000E+00
 -0.17880298E+00 -0.23808786E+00  0.00000000E+00
 -0.33861625E+00 -0.52515170E+00  0.00000000E+00
 -0.46974825E+00 -0.83524339E+00  0.00000000E+00
 -0.57091442E+00 -0.11549658E+01  0.00000000E+00
 -0.64443919E+00 -0.14746489E+01  0.00000000E+00
 -0.69414333E+00 -0.17865681E+01  0.00000000E+00
 -0.72448901E+00 -0.20846394E+01  0.00000000E+00
 -0.74018526E+00 -0.23647276E+01  0.00000000E+00
 -0.74594656E+00 -0.26255668E+01  0.00000000E+00
 -0.74653370E+00 -0.28706355E+01  0.00000000E+00
  0.00000000E+00  0.00000000E+00  0.00000000E+00
 -0.31137242E+00 -0.27808122E+00  0.00000000E+00
 -0.54389346E+00 -0.56470194E+00  0.00000000E+00
 -0.71344824E+00 -0.86771632E+00  0.00000000E+00
 -0.83399143E+00 -0.11789915E+01  0.00000000E+00
 -0.91517761E+00 -0.14906312E+01  0.00000000E+00
 -0.96480387E+00 -0.17957017E+01  0.00000000E+00
 -0.99017379E+00 -0.20885372E+01  0.00000000E+00
 -0.99876074E+00 -0.23652990E+01  0.00000000E+00
 -0.99840175E+00 -0.26250704E+01  0.00000000E+00
 -0.99652865E+00 -0.28725523E+01  0.00000000E+00
SCALARS SX float 1
LOOKUP_TABLE default
  0.31340940E+01
  0.27404874E+01
  0.17088348E+01
  0.11432764E+01
  0.75686934E+00
  0.47171330E+00
  0.25978162E+00
  0.11166868E+00
  0.25274539E-01
 -0.15615788E-02
 -0.96861705E-02
  0.17236831E+01
  0.21595621E+01
  0.16104226E+01
  0.11598479E+01
  0.81577604E+00
  0.54903389E+00
  0.34294067E+00
  0.18907123E+00
  0.83511680E-01
  0.25049589E-01
  0.72771948E-02
  0.95070399E+00
  0.11820448E+01
  0.11451366E+01
  0.93659119E+00
  0.71299117E+00
  0.51393932E+00
  0.34737352E+00
  0.21354511E+00
  0.11144596E+00
  0.42315252E-01
  0.16002679E-01
  0.48404752E+00
  0.64278923E+00
  0.67313835E+00
  0.62297689E+00
  0.51545096E+00
  0.39426386E+00
  0.28002629E+00
  0.18050636E+00
  0.98620771E-01
  0.37754730E-01
  0.15505419E-01
  0.13197297E+00
  0.25958508E+00
  0.30120892E+00
  0.30964342E+00
  0.28039090E+00
  0.22855284E+00
  0.16994626E+00
  0.11351676E+00
  0.63516258E-01
  0.23081737E-01
  0.11534832E-01
 -0.18159391E+00
 -0.63519321E-01
 -0.17455546E-01
  0.19196016E-01
  0.39079200E-01
  0.43584357E-01
  0.38437948E-01
  0.28768913E-01
  0.17235615E-01
  0.44102186E-02
  0.67802316E-02
 -0.50681108E+00
 -0.37939217E+00
 -0.32382059E+00
 -0.26139035E+00
 -0.20005509E+00
 -0.14549753E+00
 -0.99597769E-01
 -0.62048972E-01
 -0.32858108E-01
 -0.14793955E-01
  0.19811196E-02
 -0.89892087E+00
 -0.73306408E+00
 -0.65192769E+00
 -0.54891059E+00
 -0.43713107E+00
 -0.32874613E+00
 -0.23120761E+00
 -0.14773652E+00
 -0.79820109E-01
 -0.31709039E-01
 -0.26555332E-02
 -0.14528260E+01
 -0.11788213E+01
 -0.10320441E+01
 -0.85294060E+00
 -0.66670777E+00
 -0.49171001E+00
 -0.33848748E+00
 -0.21172304E+00
 -0.11251137E+00
 -0.42077011E-01
 -0.63839006E-02
 -0.24065215E+01
 -0.17906550E+01
 -0.14791591E+01
 -0.11600410E+01
 -0.86409784E+00
 -0.60566310E+00
 -0.39157897E+00
 -0.22521002E+00
 -0.10743230E+00
 -0.35576680E-01
 -0.59741760E-02
 -0.34216750E+01
 -0.25593422E+01
 -0.19273294E+01
 -0.14281360E+01
 -0.10210192E+01
 -0.68696019E+00
 -0.41914097E+00
 -0.21693702E+00
 -0.82095371E-01
 -0.13390571E-01
  0.94070772E-02
SCALARS SY float 1
LOOKUP_TABLE default
  0.17388922E+00
 -0.68428593E+00
 -0.89939851E+00
 -0.95098163E+00
 -0.97074474E+00
 -0.97926172E+00
 -0.98243550E+00
 -0.98303789E+00
 -0.98453113E+00
 -0.99340344E+00
 -0.10096862E+01
  0.31159338E+00
 -0.24404665E+00
 -0.79793267E+00
 -0.90444917E+00
 -0.94012265E+00
 -0.95278126E+00
 -0.95556648E+00
 -0.95495355E+00
 -0.95767017E+00
 -0.97611240E+00
 -0.10010881E+01
  0.17448359E+00
 -0.73484518E-01
 -0.47858162E+00
 -0.71959633E+00
 -0.81950928E+00
 -0.86027180E+00
 -0.87509405E+00
 -0.88026425E+00
 -0.88885133E+00
 -0.91992041E+00
 -0.97275993E+00
  0.73434813E-01
 -0.64842232E-01
 -0.33218717E+00
 -0.54460342E+00
 -0.67098714E+00
 -0.73337214E+00
 -0.76097332E+00
 -0.77324107E+00
 -0.78592652E+00
 -0.81914326E+00
 -0.88374140E+00
 -0.12897390E-01
 -0.99003917E-01
 -0.27519203E+00
 -0.42838125E+00
 -0.53586707E+00
 -0.59909193E+00
 -0.63151490E+00
 -0.64747292E+00
 -0.65985008E+00
 -0.68379986E+00
 -0.74225523E+00
 -0.94663467E-01
 -0.14779534E+00
 -0.25798675E+00
 -0.35262145E+00
 -0.42422921E+00
 -0.47162062E+00
 -0.49928203E+00
 -0.51387138E+00
 -0.52160784E+00
 -0.52834781E+00
 -0.56700850E+00
 -0.17969813E+00
 -0.20189319E+00
 -0.25570951E+00
 -0.29638975E+00
 -0.32913475E+00
 -0.35395094E+00
 -0.37092006E+00
 -0.38059822E+00
 -0.38193550E+00
 -0.36983348E+00
 -0.38198380E+00
 -0.27634621E+00
 -0.25473601E+00
 -0.25192370E+00
 -0.24386302E+00
 -0.24183561E+00
 -0.24496784E+00
 -0.25018835E+00
 -0.25417263E+00
 -0.25082474E+00
 -0.22581637E+00
 -0.21320430E+00
 -0.39803976E+00
 -0.29471405E+00
 -0.23161941E+00
 -0.18465983E+00
 -0.15837362E+00
 -0.14648657E+00
 -0.14272952E+00
 -0.14202812E+00
 -0.13747142E+00
 -0.11179904E+00
 -0.85322239E-01
 -0.58864525E+00
 -0.30016019E+00
 -0.18329953E+00
 -0.11848345E+00
 -0.84998849E-01
 -0.68618804E-01
 -0.60871742E-01
 -0.56732648E-01
 -0.51923645E-01
 -0.37298282E-01
 -0.14587342E-01
 -0.10265025E+01
 -0.50118026E+00
 -0.18121936E+00
 -0.80120508E-01
 -0.37891474E-01
 -0.19453845E-01
 -0.11577352E-01
 -0.86506672E-02
 -0.78266622E-02
 -0.54217618E-02
  0.99241286E-02
SCALARS TXY float 1
LOOKUP_TABLE default
 -0.13125493E+01
 -0.76487697E+00
 -0.36681315E+00
 -0.23552447E+00
 -0.17123413E+00
 -0.12969441E+00
 -0.95001808E-01
 -0.60544226E-01
 -0.25069542E-01
  0.52895966E-02
  0.96861694E-02
 -0.12774975E+01
 -0.10776103E+01
 -0.65291846E+00
 -0.44240830E+00
 -0.32473324E+00
 -0.24503658E+00
 -0.18041831E+00
 -0.12113705E+00
 -0.64640554E-01
 -0.15446451E-01
  0.46089531E-02
 -0.11247716E+01
 -0.11013438E+01
 -0.94781169E+00
 -0.74307208E+00
 -0.58270206E+00
 -0.45601468E+00
 -0.34767541E+00
 -0.24847744E+00
 -0.15463915E+00
 -0.67175569E-01
 -0.28157307E-01
 -0.10297497E+01
 -0.10447907E+01
 -0.10066308E+01
 -0.88640356E+00
 -0.74364915E+00
 -0.60620263E+00
 -0.47749052E+00
 -0.35537593E+00
 -0.23720583E+00
 -0.11978281E+00
 -0.63151294E-01
 -0.96119712E+00
 -0.98772488E+00
 -0.99530228E+00
 -0.93049520E+00
 -0.82112824E+00
 -0.69316392E+00
 -0.56069872E+00
 -0.42874449E+00
 -0.29699271E+00
 -0.15964983E+00
 -0.88853508E-01
 -0.90594755E+00
 -0.93579158E+00
 -0.96102991E+00
 -0.92327032E+00
 -0.83719826E+00
 -0.72239108E+00
 -0.59414140E+00
 -0.46098943E+00
 -0.32480986E+00
 -0.17937707E+00
 -0.10052861E+00
 -0.85913021E+00
 -0.88603758E+00
 -0.91335365E+00
 -0.88206533E+00
 -0.80544391E+00
 -0.69959030E+00
 -0.57786370E+00
 -0.44899916E+00
 -0.31629344E+00
 -0.17530893E+00
 -0.96554685E-01
 -0.82144223E+00
 -0.83235256E+00
 -0.84564155E+00
 -0.80392238E+00
 -0.72585443E+00
 -0.62539457E+00
 -0.51227558E+00
 -0.39300314E+00
 -0.27131814E+00
 -0.14673253E+00
 -0.77111318E-01
 -0.79921333E+00
 -0.75923058E+00
 -0.73353602E+00
 -0.66793949E+00
 -0.58528389E+00
 -0.49379176E+00
 -0.39681378E+00
 -0.29637904E+00
 -0.19498518E+00
 -0.97038202E-01
 -0.44695821E-01
 -0.79703525E+00
 -0.61337740E+00
 -0.51712153E+00
 -0.43151534E+00
 -0.35920501E+00
 -0.29383202E+00
 -0.23036427E+00
 -0.16590247E+00
 -0.10007555E+00
 -0.38283986E-01
 -0.75705042E-02
 -0.10695432E+01
 -0.68929604E+00
 -0.42766033E+00
 -0.29705641E+00
 -0.22151701E+00
 -0.16902510E+00
 -0.12534059E+00
 -0.84151772E-01
 -0.43314975E-01
 -0.59061034E-02
  0.19037566E-01
