# vtk DataFile Version 2.0
MEF - Elasticidade Plana 2D
ASCII
DATASET UNSTRUCTURED_GRID
POINTS       16 float
  0.00000000E+00  0.00000000E+00  0.00000000E+00
  0.33330000E+00  0.00000000E+00  0.00000000E+00
  0.66670000E+00  0.00000000E+00  0.00000000E+00
  0.10000000E+01  0.00000000E+00  0.00000000E+00
  0.00000000E+00  0.33330000E+00  0.00000000E+00
  0.33330000E+00  0.33330000E+00  0.00000000E+00
  0.66670000E+00  0.33330000E+00  0.00000000E+00
  0.10000000E+01  0.33330000E+00  0.00000000E+00
  0.00000000E+00  0.66670000E+00  0.00000000E+00
  0.33330000E+00  0.66670000E+00  0.00000000E+00
  0.66670000E+00  0.66670000E+00  0.00000000E+00
  0.10000000E+01  0.66670000E+00  0.00000000E+00
  0.00000000E+00  0.10000000E+01  0.00000000E+00
  0.33330000E+00  0.10000000E+01  0.00000000E+00
  0.66670000E+00  0.10000000E+01  0.00000000E+00
  0.10000000E+01  0.10000000E+01  0.00000000E+00
CELLS       18      72
       3       0       1       5
       3       0       5       4
       3       1       2       6
       3       1       6       5
       3       2       3       7
       3       2       7       6
       3       4       5       9
       3       4       9       8
       3       5       6      10
       3       5      10       9
       3       6       7      11
       3       6      11      10
       3       8       9      13
       3       8      13      12
       3       9      10      14
       3       9      14      13
       3      10      11      15
       3      10      15      14
CELL_TYPES       18
 5
 5
 5
 5
 5
 5
 5
 5
 5
 5
 5
 5
 5
 5
 5
 5
 5
 5
POINT_DATA       16
VECTORS Deslocamentos float
  0.00000000E+00  0.00000000E+00  0.00000000E+00
 -0.19497564E+00  0.00000000E+00  0.00000000E+00
 -0.39001000E+00  0.00000000E+00  0.00000000E+00
 -0.58499283E+00  0.00000000E+00  0.00000000E+00
 -0.25106811E-06  0.45495851E+00  0.00000000E+00
 -0.19497719E+00  0.45494941E+00  0.00000000E+00
 -0.39001026E+00  0.45495094E+00  0.00000000E+00
 -0.58499137E+00  0.45496091E+00  0.00000000E+00
 -0.62276077E-08  0.91006015E+00  0.00000000E+00
 -0.19497891E+00  0.91003207E+00  0.00000000E+00
 -0.39001013E+00  0.91003626E+00  0.00000000E+00
 -0.58499334E+00  0.91006265E+00  0.00000000E+00
  0.34964378E-04  0.13650521E+01  0.00000000E+00
 -0.19497310E+00  0.13649768E+01  0.00000000E+00
 -0.39002418E+00  0.13649766E+01  0.00000000E+00
 -0.58500332E+00  0.13650411E+01  0.00000000E+00
SCALARS SX float 1
LOOKUP_TABLE default
  0.16073684E-04
  0.12826741E-04
  0.18922748E-05
  0.16879915E-05
  0.15385399E-04
  0.13046176E-04
  0.47600969E-05
  0.30779901E-05
 -0.10708568E-04
 -0.45695786E-05
  0.47960418E-05
  0.86174237E-05
 -0.46511472E-04
 -0.40887390E-04
 -0.25898658E-04
  0.57587383E-05
SCALARS SY float 1
LOOKUP_TABLE default
  0.15000051E+01
  0.14999904E+01
  0.15000000E+01
  0.15000219E+01
  0.15000135E+01
  0.14999899E+01
  0.14999950E+01
  0.15000163E+01
  0.15000375E+01
  0.14999762E+01
  0.14999888E+01
  0.15000355E+01
  0.15001035E+01
  0.15000022E+01
  0.14999471E+01
  0.15000186E+01
SCALARS TXY float 1
LOOKUP_TABLE default
 -0.62894454E-05
 -0.69787226E-06
  0.41960316E-05
  0.16884368E-05
 -0.18472790E-04
 -0.33861419E-05
  0.87765591E-05
  0.73769496E-05
 -0.34773165E-04
 -0.12056336E-04
  0.16847115E-04
  0.19595249E-04
 -0.46510299E-04
 -0.21900482E-04
  0.17754203E-04
  0.38539760E-04
