# vtk DataFile Version 2.0
MEF - Elasticidade Plana 2D
ASCII
DATASET UNSTRUCTURED_GRID
POINTS       16 float
  0.00000000E+00  0.00000000E+00  0.00000000E+00
  0.33330000E+00  0.00000000E+00  0.00000000E+00
  0.66670000E+00  0.00000000E+00  0.00000000E+00
  0.10000000E+01  0.00000000E+00  0.00000000E+00
  0.00000000E+00  0.33330000E+00  0.00000000E+00
  0.33330000E+00  0.33330000E+00  0.00000000E+00
  0.66670000E+00  0.33330000E+00  0.00000000E+00
  0.10000000E+01  0.33330000E+00  0.00000000E+00
  0.00000000E+00  0.66670000E+00  0.00000000E+00
  0.33330000E+00  0.66670000E+00  0.00000000E+00
  0.66670000E+00  0.66670000E+00  0.00000000E+00
  0.10000000E+01  0.66670000E+00  0.00000000E+00
  0.00000000E+00  0.10000000E+01  0.00000000E+00
  0.33330000E+00  0.10000000E+01  0.00000000E+00
  0.66670000E+00  0.10000000E+01  0.00000000E+00
  0.10000000E+01  0.10000000E+01  0.00000000E+00
CELLS       18      72
       3       0       1       5
       3       0       5       4
       3       1       2       6
       3       1       6       5
       3       2       3       7
       3       2       7       6
       3       4       5       9
       3       4       9       8
       3       5       6      10
       3       5      10       9
       3       6       7      11
       3       6      11      10
       3       8       9      13
       3       8      13      12
       3       9      10      14
       3       9      14      13
       3      10      11      15
       3      10      15      14
CELL_TYPES       18
 5
 5
 5
 5
 5
 5
 5
 5
 5
 5
 5
 5
 5
 5
 5
 5
 5
 5
POINT_DATA       16
VECTORS Deslocamentos float
  0.00000000E+00  0.00000000E+00  0.00000000E+00
 -0.14998022E+00  0.00000000E+00  0.00000000E+00
 -0.30000535E+00  0.00000000E+00  0.00000000E+00
 -0.44999173E+00  0.00000000E+00  0.00000000E+00
 -0.38334543E-06  0.49995465E+00  0.00000000E+00
 -0.14998145E+00  0.49994536E+00  0.00000000E+00
 -0.30000531E+00  0.49994654E+00  0.00000000E+00
 -0.44999043E+00  0.49995610E+00  0.00000000E+00
  0.29854935E-06  0.10000667E+01  0.00000000E+00
 -0.14998230E+00  0.10000370E+01  0.00000000E+00
 -0.30000521E+00  0.10000404E+01  0.00000000E+00
 -0.44999223E+00  0.10000679E+01  0.00000000E+00
  0.37357307E-04  0.15000552E+01  0.00000000E+00
 -0.14997420E+00  0.14999752E+01  0.00000000E+00
 -0.30002052E+00  0.14999748E+01  0.00000000E+00
 -0.45000577E+00  0.15000449E+01  0.00000000E+00
SCALARS SX float 1
LOOKUP_TABLE default
  0.14371749E-04
  0.13139271E-04
  0.34287717E-05
  0.15006918E-05
  0.14042744E-04
  0.13054239E-04
  0.61733304E-05
  0.29778652E-05
 -0.11154384E-04
 -0.35970859E-05
  0.47117795E-05
  0.61713327E-05
 -0.49530105E-04
 -0.39586794E-04
 -0.24557554E-04
  0.19091911E-05
SCALARS SY float 1
LOOKUP_TABLE default
  0.15000043E+01
  0.14999912E+01
  0.15000002E+01
  0.15000188E+01
  0.15000126E+01
  0.14999902E+01
  0.14999958E+01
  0.15000153E+01
  0.15000354E+01
  0.14999770E+01
  0.14999890E+01
  0.15000344E+01
  0.15001005E+01
  0.15000030E+01
  0.14999497E+01
  0.15000177E+01
SCALARS TXY float 1
LOOKUP_TABLE default
 -0.62866896E-05
 -0.47132269E-06
  0.42149915E-05
  0.14999177E-05
 -0.18789154E-04
 -0.33321799E-05
  0.89016642E-05
  0.71839323E-05
 -0.35973422E-04
 -0.12027917E-04
  0.16962728E-04
  0.19004729E-04
 -0.49492304E-04
 -0.21844659E-04
  0.19422316E-04
  0.39668021E-04
