# vtk DataFile Version 2.0
MEF - Elasticidade Plana 2D
ASCII
DATASET UNSTRUCTURED_GRID
POINTS      441 float
  0.00000000E+00  0.10000000E+01  0.00000000E+00
  0.50000000E-01  0.10000000E+01  0.00000000E+00
  0.10000000E+00  0.10000000E+01  0.00000000E+00
  0.15000000E+00  0.10000000E+01  0.00000000E+00
  0.20000000E+00  0.10000000E+01  0.00000000E+00
  0.25000000E+00  0.10000000E+01  0.00000000E+00
  0.30000000E+00  0.10000000E+01  0.00000000E+00
  0.35000000E+00  0.10000000E+01  0.00000000E+00
  0.40000000E+00  0.10000000E+01  0.00000000E+00
  0.45000000E+00  0.10000000E+01  0.00000000E+00
  0.50000000E+00  0.10000000E+01  0.00000000E+00
  0.55000000E+00  0.10000000E+01  0.00000000E+00
  0.60000000E+00  0.10000000E+01  0.00000000E+00
  0.65000000E+00  0.10000000E+01  0.00000000E+00
  0.70000000E+00  0.10000000E+01  0.00000000E+00
  0.75000000E+00  0.10000000E+01  0.00000000E+00
  0.80000000E+00  0.10000000E+01  0.00000000E+00
  0.85000000E+00  0.10000000E+01  0.00000000E+00
  0.90000000E+00  0.10000000E+01  0.00000000E+00
  0.95000000E+00  0.10000000E+01  0.00000000E+00
  0.10000000E+01  0.10000000E+01  0.00000000E+00
  0.00000000E+00  0.95000000E+00  0.00000000E+00
  0.50000000E-01  0.95000000E+00  0.00000000E+00
  0.10000000E+00  0.95000000E+00  0.00000000E+00
  0.15000000E+00  0.95000000E+00  0.00000000E+00
  0.20000000E+00  0.95000000E+00  0.00000000E+00
  0.25000000E+00  0.95000000E+00  0.00000000E+00
  0.30000000E+00  0.95000000E+00  0.00000000E+00
  0.35000000E+00  0.95000000E+00  0.00000000E+00
  0.40000000E+00  0.95000000E+00  0.00000000E+00
  0.45000000E+00  0.95000000E+00  0.00000000E+00
  0.50000000E+00  0.95000000E+00  0.00000000E+00
  0.55000000E+00  0.95000000E+00  0.00000000E+00
  0.60000000E+00  0.95000000E+00  0.00000000E+00
  0.65000000E+00  0.95000000E+00  0.00000000E+00
  0.70000000E+00  0.95000000E+00  0.00000000E+00
  0.75000000E+00  0.95000000E+00  0.00000000E+00
  0.80000000E+00  0.95000000E+00  0.00000000E+00
  0.85000000E+00  0.95000000E+00  0.00000000E+00
  0.90000000E+00  0.95000000E+00  0.00000000E+00
  0.95000000E+00  0.95000000E+00  0.00000000E+00
  0.10000000E+01  0.95000000E+00  0.00000000E+00
  0.00000000E+00  0.90000000E+00  0.00000000E+00
  0.50000000E-01  0.90000000E+00  0.00000000E+00
  0.10000000E+00  0.90000000E+00  0.00000000E+00
  0.15000000E+00  0.90000000E+00  0.00000000E+00
  0.20000000E+00  0.90000000E+00  0.00000000E+00
  0.25000000E+00  0.90000000E+00  0.00000000E+00
  0.30000000E+00  0.90000000E+00  0.00000000E+00
  0.35000000E+00  0.90000000E+00  0.00000000E+00
  0.40000000E+00  0.90000000E+00  0.00000000E+00
  0.45000000E+00  0.90000000E+00  0.00000000E+00
  0.50000000E+00  0.90000000E+00  0.00000000E+00
  0.55000000E+00  0.90000000E+00  0.00000000E+00
  0.60000000E+00  0.90000000E+00  0.00000000E+00
  0.65000000E+00  0.90000000E+00  0.00000000E+00
  0.70000000E+00  0.90000000E+00  0.00000000E+00
  0.75000000E+00  0.90000000E+00  0.00000000E+00
  0.80000000E+00  0.90000000E+00  0.00000000E+00
  0.85000000E+00  0.90000000E+00  0.00000000E+00
  0.90000000E+00  0.90000000E+00  0.00000000E+00
  0.95000000E+00  0.90000000E+00  0.00000000E+00
  0.10000000E+01  0.90000000E+00  0.00000000E+00
  0.00000000E+00  0.85000000E+00  0.00000000E+00
  0.50000000E-01  0.85000000E+00  0.00000000E+00
  0.10000000E+00  0.85000000E+00  0.00000000E+00
  0.15000000E+00  0.85000000E+00  0.00000000E+00
  0.20000000E+00  0.85000000E+00  0.00000000E+00
  0.25000000E+00  0.85000000E+00  0.00000000E+00
  0.30000000E+00  0.85000000E+00  0.00000000E+00
  0.35000000E+00  0.85000000E+00  0.00000000E+00
  0.40000000E+00  0.85000000E+00  0.00000000E+00
  0.45000000E+00  0.85000000E+00  0.00000000E+00
  0.50000000E+00  0.85000000E+00  0.00000000E+00
  0.55000000E+00  0.85000000E+00  0.00000000E+00
  0.60000000E+00  0.85000000E+00  0.00000000E+00
  0.65000000E+00  0.85000000E+00  0.00000000E+00
  0.70000000E+00  0.85000000E+00  0.00000000E+00
  0.75000000E+00  0.85000000E+00  0.00000000E+00
  0.80000000E+00  0.85000000E+00  0.00000000E+00
  0.85000000E+00  0.85000000E+00  0.00000000E+00
  0.90000000E+00  0.85000000E+00  0.00000000E+00
  0.95000000E+00  0.85000000E+00  0.00000000E+00
  0.10000000E+01  0.85000000E+00  0.00000000E+00
  0.00000000E+00  0.80000000E+00  0.00000000E+00
  0.50000000E-01  0.80000000E+00  0.00000000E+00
  0.10000000E+00  0.80000000E+00  0.00000000E+00
  0.15000000E+00  0.80000000E+00  0.00000000E+00
  0.20000000E+00  0.80000000E+00  0.00000000E+00
  0.25000000E+00  0.80000000E+00  0.00000000E+00
  0.30000000E+00  0.80000000E+00  0.00000000E+00
  0.35000000E+00  0.80000000E+00  0.00000000E+00
  0.40000000E+00  0.80000000E+00  0.00000000E+00
  0.45000000E+00  0.80000000E+00  0.00000000E+00
  0.50000000E+00  0.80000000E+00  0.00000000E+00
  0.55000000E+00  0.80000000E+00  0.00000000E+00
  0.60000000E+00  0.80000000E+00  0.00000000E+00
  0.65000000E+00  0.80000000E+00  0.00000000E+00
  0.70000000E+00  0.80000000E+00  0.00000000E+00
  0.75000000E+00  0.80000000E+00  0.00000000E+00
  0.80000000E+00  0.80000000E+00  0.00000000E+00
  0.85000000E+00  0.80000000E+00  0.00000000E+00
  0.90000000E+00  0.80000000E+00  0.00000000E+00
  0.95000000E+00  0.80000000E+00  0.00000000E+00
  0.10000000E+01  0.80000000E+00  0.00000000E+00
  0.00000000E+00  0.75000000E+00  0.00000000E+00
  0.50000000E-01  0.75000000E+00  0.00000000E+00
  0.10000000E+00  0.75000000E+00  0.00000000E+00
  0.15000000E+00  0.75000000E+00  0.00000000E+00
  0.20000000E+00  0.75000000E+00  0.00000000E+00
  0.25000000E+00  0.75000000E+00  0.00000000E+00
  0.30000000E+00  0.75000000E+00  0.00000000E+00
  0.35000000E+00  0.75000000E+00  0.00000000E+00
  0.40000000E+00  0.75000000E+00  0.00000000E+00
  0.45000000E+00  0.75000000E+00  0.00000000E+00
  0.50000000E+00  0.75000000E+00  0.00000000E+00
  0.55000000E+00  0.75000000E+00  0.00000000E+00
  0.60000000E+00  0.75000000E+00  0.00000000E+00
  0.65000000E+00  0.75000000E+00  0.00000000E+00
  0.70000000E+00  0.75000000E+00  0.00000000E+00
  0.75000000E+00  0.75000000E+00  0.00000000E+00
  0.80000000E+00  0.75000000E+00  0.00000000E+00
  0.85000000E+00  0.75000000E+00  0.00000000E+00
  0.90000000E+00  0.75000000E+00  0.00000000E+00
  0.95000000E+00  0.75000000E+00  0.00000000E+00
  0.10000000E+01  0.75000000E+00  0.00000000E+00
  0.00000000E+00  0.70000000E+00  0.00000000E+00
  0.50000000E-01  0.70000000E+00  0.00000000E+00
  0.10000000E+00  0.70000000E+00  0.00000000E+00
  0.15000000E+00  0.70000000E+00  0.00000000E+00
  0.20000000E+00  0.70000000E+00  0.00000000E+00
  0.25000000E+00  0.70000000E+00  0.00000000E+00
  0.30000000E+00  0.70000000E+00  0.00000000E+00
  0.35000000E+00  0.70000000E+00  0.00000000E+00
  0.40000000E+00  0.70000000E+00  0.00000000E+00
  0.45000000E+00  0.70000000E+00  0.00000000E+00
  0.50000000E+00  0.70000000E+00  0.00000000E+00
  0.55000000E+00  0.70000000E+00  0.00000000E+00
  0.60000000E+00  0.70000000E+00  0.00000000E+00
  0.65000000E+00  0.70000000E+00  0.00000000E+00
  0.70000000E+00  0.70000000E+00  0.00000000E+00
  0.75000000E+00  0.70000000E+00  0.00000000E+00
  0.80000000E+00  0.70000000E+00  0.00000000E+00
  0.85000000E+00  0.70000000E+00  0.00000000E+00
  0.90000000E+00  0.70000000E+00  0.00000000E+00
  0.95000000E+00  0.70000000E+00  0.00000000E+00
  0.10000000E+01  0.70000000E+00  0.00000000E+00
  0.00000000E+00  0.65000000E+00  0.00000000E+00
  0.50000000E-01  0.65000000E+00  0.00000000E+00
  0.10000000E+00  0.65000000E+00  0.00000000E+00
  0.15000000E+00  0.65000000E+00  0.00000000E+00
  0.20000000E+00  0.65000000E+00  0.00000000E+00
  0.25000000E+00  0.65000000E+00  0.00000000E+00
  0.30000000E+00  0.65000000E+00  0.00000000E+00
  0.35000000E+00  0.65000000E+00  0.00000000E+00
  0.40000000E+00  0.65000000E+00  0.00000000E+00
  0.45000000E+00  0.65000000E+00  0.00000000E+00
  0.50000000E+00  0.65000000E+00  0.00000000E+00
  0.55000000E+00  0.65000000E+00  0.00000000E+00
  0.60000000E+00  0.65000000E+00  0.00000000E+00
  0.65000000E+00  0.65000000E+00  0.00000000E+00
  0.70000000E+00  0.65000000E+00  0.00000000E+00
  0.75000000E+00  0.65000000E+00  0.00000000E+00
  0.80000000E+00  0.65000000E+00  0.00000000E+00
  0.85000000E+00  0.65000000E+00  0.00000000E+00
  0.90000000E+00  0.65000000E+00  0.00000000E+00
  0.95000000E+00  0.65000000E+00  0.00000000E+00
  0.10000000E+01  0.65000000E+00  0.00000000E+00
  0.00000000E+00  0.60000000E+00  0.00000000E+00
  0.50000000E-01  0.60000000E+00  0.00000000E+00
  0.10000000E+00  0.60000000E+00  0.00000000E+00
  0.15000000E+00  0.60000000E+00  0.00000000E+00
  0.20000000E+00  0.60000000E+00  0.00000000E+00
  0.25000000E+00  0.60000000E+00  0.00000000E+00
  0.30000000E+00  0.60000000E+00  0.00000000E+00
  0.35000000E+00  0.60000000E+00  0.00000000E+00
  0.40000000E+00  0.60000000E+00  0.00000000E+00
  0.45000000E+00  0.60000000E+00  0.00000000E+00
  0.50000000E+00  0.60000000E+00  0.00000000E+00
  0.55000000E+00  0.60000000E+00  0.00000000E+00
  0.60000000E+00  0.60000000E+00  0.00000000E+00
  0.65000000E+00  0.60000000E+00  0.00000000E+00
  0.70000000E+00  0.60000000E+00  0.00000000E+00
  0.75000000E+00  0.60000000E+00  0.00000000E+00
  0.80000000E+00  0.60000000E+00  0.00000000E+00
  0.85000000E+00  0.60000000E+00  0.00000000E+00
  0.90000000E+00  0.60000000E+00  0.00000000E+00
  0.95000000E+00  0.60000000E+00  0.00000000E+00
  0.10000000E+01  0.60000000E+00  0.00000000E+00
  0.00000000E+00  0.55000000E+00  0.00000000E+00
  0.50000000E-01  0.55000000E+00  0.00000000E+00
  0.10000000E+00  0.55000000E+00  0.00000000E+00
  0.15000000E+00  0.55000000E+00  0.00000000E+00
  0.20000000E+00  0.55000000E+00  0.00000000E+00
  0.25000000E+00  0.55000000E+00  0.00000000E+00
  0.30000000E+00  0.55000000E+00  0.00000000E+00
  0.35000000E+00  0.55000000E+00  0.00000000E+00
  0.40000000E+00  0.55000000E+00  0.00000000E+00
  0.45000000E+00  0.55000000E+00  0.00000000E+00
  0.50000000E+00  0.55000000E+00  0.00000000E+00
  0.55000000E+00  0.55000000E+00  0.00000000E+00
[...]
POINT_DATA      441
VECTORS Deslocamentos float
  0.55722529E+01  0.11940994E+02  0.00000000E+00
  0.46960765E+01  0.10497194E+02  0.00000000E+00
  0.40622825E+01  0.99261575E+01  0.00000000E+00
  0.34811520E+01  0.96049001E+01  0.00000000E+00
  0.29339207E+01  0.94016431E+01  0.00000000E+00
  0.24123162E+01  0.92658539E+01  0.00000000E+00
  0.19099601E+01  0.91730450E+01  0.00000000E+00
  0.14217162E+01  0.91097959E+01  0.00000000E+00
  0.94335093E+00  0.90680832E+01  0.00000000E+00
  0.47104474E+00  0.90425016E+01  0.00000000E+00
  0.69586366E-09  0.90263294E+01  0.00000000E+00
 -0.47104474E+00  0.90425016E+01  0.00000000E+00
 -0.94335093E+00  0.90680832E+01  0.00000000E+00
 -0.14217162E+01  0.91097959E+01  0.00000000E+00
 -0.19099601E+01  0.91730450E+01  0.00000000E+00
 -0.24123162E+01  0.92658539E+01  0.00000000E+00
 -0.29339207E+01  0.94016431E+01  0.00000000E+00
 -0.34811520E+01  0.96049001E+01  0.00000000E+00
 -0.40622825E+01  0.99261575E+01  0.00000000E+00
 -0.46960765E+01  0.10497194E+02  0.00000000E+00
 -0.55722529E+01  0.11940994E+02  0.00000000E+00
  0.46093351E+01  0.10217170E+02  0.00000000E+00
  0.40894479E+01  0.94333377E+01  0.00000000E+00
  0.36354684E+01  0.89514961E+01  0.00000000E+00
  0.31838199E+01  0.86496376E+01  0.00000000E+00
  0.27271380E+01  0.84524506E+01  0.00000000E+00
  0.22683405E+01  0.83198676E+01  0.00000000E+00
  0.18103215E+01  0.82295283E+01  0.00000000E+00
  0.13544776E+01  0.81683030E+01  0.00000000E+00
  0.90096560E+00  0.81280825E+01  0.00000000E+00
  0.44919309E+00  0.81034870E+01  0.00000000E+00
 -0.49776125E-09  0.80925837E+01  0.00000000E+00
 -0.44919309E+00  0.81034870E+01  0.00000000E+00
 -0.90096560E+00  0.81280825E+01  0.00000000E+00
 -0.13544776E+01  0.81683030E+01  0.00000000E+00
 -0.18103215E+01  0.82295283E+01  0.00000000E+00
 -0.22683405E+01  0.83198676E+01  0.00000000E+00
 -0.27271380E+01  0.84524506E+01  0.00000000E+00
 -0.31838199E+01  0.86496376E+01  0.00000000E+00
 -0.36354684E+01  0.89514961E+01  0.00000000E+00
 -0.40894479E+01  0.94333377E+01  0.00000000E+00
 -0.46093351E+01  0.10217170E+02  0.00000000E+00
  0.42517325E+01  0.88184518E+01  0.00000000E+00
  0.37730125E+01  0.83621201E+01  0.00000000E+00
  0.33550371E+01  0.79845131E+01  0.00000000E+00
  0.29503484E+01  0.77135793E+01  0.00000000E+00
  0.25418078E+01  0.75244241E+01  0.00000000E+00
  0.21263168E+01  0.73931131E+01  0.00000000E+00
  0.17051781E+01  0.73024363E+01  0.00000000E+00
  0.12804061E+01  0.72407820E+01  0.00000000E+00
  0.85366136E+00  0.72005106E+01  0.00000000E+00
  0.42640673E+00  0.71771209E+01  0.00000000E+00
  0.41003357E-09  0.71688834E+01  0.00000000E+00
 -0.42640673E+00  0.71771209E+01  0.00000000E+00
 -0.85366136E+00  0.72005106E+01  0.00000000E+00
 -0.12804061E+01  0.72407820E+01  0.00000000E+00
 -0.17051781E+01  0.73024363E+01  0.00000000E+00
 -0.21263168E+01  0.73931131E+01  0.00000000E+00
 -0.25418078E+01  0.75244241E+01  0.00000000E+00
 -0.29503484E+01  0.77135793E+01  0.00000000E+00
 -0.33550371E+01  0.79845131E+01  0.00000000E+00
 -0.37730125E+01  0.83621201E+01  0.00000000E+00
 -0.42517325E+01  0.88184518E+01  0.00000000E+00
  0.40732758E+01  0.75567397E+01  0.00000000E+00
  0.36050044E+01  0.72850000E+01  0.00000000E+00
  0.31875124E+01  0.70039961E+01  0.00000000E+00
  0.27926370E+01  0.67748538E+01  0.00000000E+00
  0.24027863E+01  0.66020122E+01  0.00000000E+00
  0.20105381E+01  0.64762214E+01  0.00000000E+00
  0.16139154E+01  0.63869049E+01  0.00000000E+00
  0.12132739E+01  0.63253294E+01  0.00000000E+00
  0.80980914E+00  0.62851860E+01  0.00000000E+00
  0.40493581E+00  0.62625569E+01  0.00000000E+00
 -0.32091038E-09  0.62558124E+01  0.00000000E+00
 -0.40493581E+00  0.62625569E+01  0.00000000E+00
 -0.80980914E+00  0.62851860E+01  0.00000000E+00
 -0.12132739E+01  0.63253294E+01  0.00000000E+00
 -0.16139154E+01  0.63869049E+01  0.00000000E+00
 -0.20105381E+01  0.64762214E+01  0.00000000E+00
 -0.24027863E+01  0.66020122E+01  0.00000000E+00
 -0.27926370E+01  0.67748538E+01  0.00000000E+00
 -0.31875124E+01  0.70039961E+01  0.00000000E+00
 -0.36050044E+01  0.72850000E+01  0.00000000E+00
 -0.40732758E+01  0.75567397E+01  0.00000000E+00
  0.39742601E+01  0.63784927E+01  0.00000000E+00
  0.35131544E+01  0.62132586E+01  0.00000000E+00
  0.30907781E+01  0.60104219E+01  0.00000000E+00
  0.26934204E+01  0.58258307E+01  0.00000000E+00
  0.23077653E+01  0.56759568E+01  0.00000000E+00
  0.19256814E+01  0.55612942E+01  0.00000000E+00
  0.15432720E+01  0.54771418E+01  0.00000000E+00
  0.11592129E+01  0.54179899E+01  0.00000000E+00
  0.77353204E+00  0.53792021E+01  0.00000000E+00
  0.38686457E+00  0.53576248E+01  0.00000000E+00
  0.22777167E-09  0.53517954E+01  0.00000000E+00
 -0.38686457E+00  0.53576248E+01  0.00000000E+00
 -0.77353204E+00  0.53792021E+01  0.00000000E+00
 -0.11592129E+01  0.54179899E+01  0.00000000E+00
 -0.15432720E+01  0.54771418E+01  0.00000000E+00
 -0.19256814E+01  0.55612942E+01  0.00000000E+00
 -0.23077653E+01  0.56759568E+01  0.00000000E+00
 -0.26934204E+01  0.58258307E+01  0.00000000E+00
 -0.30907781E+01  0.60104219E+01  0.00000000E+00
 -0.35131544E+01  0.62132586E+01  0.00000000E+00
 -0.39742601E+01  0.63784927E+01  0.00000000E+00
  0.39167180E+01  0.52550528E+01  0.00000000E+00
  0.34623327E+01  0.51529165E+01  0.00000000E+00
  0.30364283E+01  0.50094882E+01  0.00000000E+00
  0.26340949E+01  0.48666099E+01  0.00000000E+00
  0.22468770E+01  0.47429129E+01  0.00000000E+00
  0.18679004E+01  0.46438357E+01  0.00000000E+00
  0.14927788E+01  0.45687609E+01  0.00000000E+00
  0.11191443E+01  0.45149066E+01  0.00000000E+00
  0.74595444E+00  0.44792640E+01  0.00000000E+00
  0.37290890E+00  0.44595122E+01  0.00000000E+00
 -0.13658639E-09  0.44544156E+01  0.00000000E+00
 -0.37290890E+00  0.44595122E+01  0.00000000E+00
 -0.74595444E+00  0.44792640E+01  0.00000000E+00
 -0.11191443E+01  0.45149066E+01  0.00000000E+00
 -0.14927788E+01  0.45687609E+01  0.00000000E+00
 -0.18679004E+01  0.46438357E+01  0.00000000E+00
 -0.22468770E+01  0.47429129E+01  0.00000000E+00
 -0.26340949E+01  0.48666099E+01  0.00000000E+00
 -0.30364283E+01  0.50094882E+01  0.00000000E+00
 -0.34623327E+01  0.51529165E+01  0.00000000E+00
 -0.39167180E+01  0.52550528E+01  0.00000000E+00
  0.38828807E+01  0.41686684E+01  0.00000000E+00
  0.34344891E+01  0.41052527E+01  0.00000000E+00
  0.30070160E+01  0.40060599E+01  0.00000000E+00
  0.26003733E+01  0.38998115E+01  0.00000000E+00
  0.22100090E+01  0.38028209E+01  0.00000000E+00
  0.18308773E+01  0.37220669E+01  0.00000000E+00
  0.14589303E+01  0.36591737E+01  0.00000000E+00
  0.10913600E+01  0.36132467E+01  0.00000000E+00
  0.72637409E+00  0.35825806E+01  0.00000000E+00
  0.36285245E+00  0.35655981E+01  0.00000000E+00
  0.55442032E-10  0.35613065E+01  0.00000000E+00
 -0.36285245E+00  0.35655981E+01  0.00000000E+00
 -0.72637409E+00  0.35825807E+01  0.00000000E+00
 -0.10913600E+01  0.36132467E+01  0.00000000E+00
 -0.14589303E+01  0.36591737E+01  0.00000000E+00
 -0.18308773E+01  0.37220669E+01  0.00000000E+00
 -0.22100090E+01  0.38028209E+01  0.00000000E+00
 -0.26003733E+01  0.38998115E+01  0.00000000E+00
 -0.30070160E+01  0.40060599E+01  0.00000000E+00
 -0.34344891E+01  0.41052527E+01  0.00000000E+00
 -0.38828807E+01  0.41686684E+01  0.00000000E+00
  0.38633314E+01  0.31075492E+01  0.00000000E+00
  0.34197837E+01  0.30689806E+01  0.00000000E+00
  0.29919943E+01  0.30029957E+01  0.00000000E+00
  0.25823355E+01  0.29281671E+01  0.00000000E+00
  0.21889578E+01  0.28569582E+01  0.00000000E+00
  0.18084975E+01  0.27958543E+01  0.00000000E+00
  0.14375473E+01  0.27472609E+01  0.00000000E+00
  0.10732327E+01  0.27113194E+01  0.00000000E+00
  0.71331078E+00  0.26871977E+01  0.00000000E+00
  0.35604685E+00  0.26738844E+01  0.00000000E+00
  0.90867099E-11  0.26706064E+01  0.00000000E+00
 -0.35604685E+00  0.26738844E+01  0.00000000E+00
 -0.71331078E+00  0.26871977E+01  0.00000000E+00
 -0.10732327E+01  0.27113194E+01  0.00000000E+00
 -0.14375473E+01  0.27472609E+01  0.00000000E+00
 -0.18084975E+01  0.27958543E+01  0.00000000E+00
 -0.21889578E+01  0.28569582E+01  0.00000000E+00
 -0.25823355E+01  0.29281671E+01  0.00000000E+00
 -0.29919943E+01  0.30029957E+01  0.00000000E+00
 -0.34197837E+01  0.30689806E+01  0.00000000E+00
 -0.38633314E+01  0.31075492E+01  0.00000000E+00
  0.38526835E+01  0.20633016E+01  0.00000000E+00
  0.34126007E+01  0.20416661E+01  0.00000000E+00
  0.29849983E+01  0.20014478E+01  0.00000000E+00
  0.25734302E+01  0.19537304E+01  0.00000000E+00
  0.21777421E+01  0.19069088E+01  0.00000000E+00
  0.17958337E+01  0.18659060E+01  0.00000000E+00
  0.14249143E+01  0.18329071E+01  0.00000000E+00
  0.10621978E+01  0.18083942E+01  0.00000000E+00
  0.70519560E+00  0.17920042E+01  0.00000000E+00
  0.35176239E+00  0.17831022E+01  0.00000000E+00
 -0.52344130E-10  0.17810934E+01  0.00000000E+00
 -0.35176239E+00  0.17831022E+01  0.00000000E+00
 -0.70519560E+00  0.17920042E+01  0.00000000E+00
 -0.10621978E+01  0.18083942E+01  0.00000000E+00
 -0.14249143E+01  0.18329071E+01  0.00000000E+00
 -0.17958337E+01  0.18659060E+01  0.00000000E+00
 -0.21777421E+01  0.19069088E+01  0.00000000E+00
 -0.25734302E+01  0.19537304E+01  0.00000000E+00
 -0.29849983E+01  0.20014478E+01  0.00000000E+00
 -0.34126007E+01  0.20416661E+01  0.00000000E+00
 -0.38526835E+01  0.20633016E+01  0.00000000E+00
  0.38478105E+01  0.10294574E+01  0.00000000E+00
  0.34097133E+01  0.10204370E+01  0.00000000E+00
  0.29822694E+01  0.10014171E+01  0.00000000E+00
  0.25695606E+01  0.97780523E+00  0.00000000E+00
  0.21723763E+01  0.95414538E+00  0.00000000E+00
  0.17893982E+01  0.93329985E+00  0.00000000E+00
  0.14182557E+01  0.91661978E+00  0.00000000E+00
  0.10562498E+01  0.90444471E+00  0.00000000E+00
  0.70075841E+00  0.89657907E+00  0.00000000E+00
  0.34939521E+00  0.89261988E+00  0.00000000E+00
  0.73143502E-10  0.89212351E+00  0.00000000E+00
 -0.34939521E+00  0.89261988E+00  0.00000000E+00
 -0.70075841E+00  0.89657907E+00  0.00000000E+00
 -0.10562498E+01  0.90444471E+00  0.00000000E+00
 -0.14182557E+01  0.91661978E+00  0.00000000E+00
 -0.17893982E+01  0.93329985E+00  0.00000000E+00
 -0.21723763E+01  0.95414539E+00  0.00000000E+00
 -0.25695606E+01  0.97780523E+00  0.00000000E+00
 -0.29822694E+01  0.10014171E+01  0.00000000E+00
 -0.34097133E+01  0.10204370E+01  0.00000000E+00
 -0.38478105E+01  0.10294574E+01  0.00000000E+00
  0.38470812E+01  0.58531244E-03  0.00000000E+00
  0.34094340E+01  0.22821678E-02  0.00000000E+00
  0.29818011E+01  0.22234964E-02  0.00000000E+00
  0.25684597E+01  0.11334624E-02  0.00000000E+00
  0.21705756E+01 -0.54117326E-04  0.00000000E+00
  0.17871345E+01 -0.74146344E-03  0.00000000E+00
  0.14159016E+01 -0.73319433E-03  0.00000000E+00
  0.10541678E+01 -0.99268803E-04  0.00000000E+00
  0.69922237E+00  0.97209672E-03  0.00000000E+00
  0.34857688E+00  0.22500056E-02  0.00000000E+00
 -0.72930121E-10  0.34544826E-02  0.00000000E+00
 -0.34857688E+00  0.22500058E-02  0.00000000E+00
 -0.69922237E+00  0.97209646E-03  0.00000000E+00
 -0.10541678E+01 -0.99268535E-04  0.00000000E+00
 -0.14159016E+01 -0.73319458E-03  0.00000000E+00
 -0.17871345E+01 -0.74146321E-03  0.00000000E+00
 -0.21705756E+01 -0.54117541E-04  0.00000000E+00
 -0.25684597E+01  0.11334627E-02  0.00000000E+00
 -0.29818011E+01  0.22234961E-02  0.00000000E+00
 -0.34094340E+01  0.22821682E-02  0.00000000E+00
 -0.38470812E+01  0.58531190E-03  0.00000000E+00
  0.38500452E+01 -0.10282965E+01  0.00000000E+00
  0.34112410E+01 -0.10158518E+01  0.00000000E+00
  0.29829180E+01 -0.99714778E+00  0.00000000E+00
  0.25693395E+01 -0.97584505E+00  0.00000000E+00
  0.21715545E+01 -0.95452653E+00  0.00000000E+00
  0.17883655E+01 -0.93492381E+00  0.00000000E+00
  0.14173384E+01 -0.91809426E+00  0.00000000E+00
  0.10556078E+01 -0.90457205E+00  0.00000000E+00
  0.70039066E+00 -0.89453462E+00  0.00000000E+00
  0.34922468E+00 -0.88799255E+00  0.00000000E+00
  0.55559787E-10 -0.88498897E+00  0.00000000E+00
 -0.34922468E+00 -0.88799255E+00  0.00000000E+00
 -0.70039066E+00 -0.89453462E+00  0.00000000E+00
 -0.10556078E+01 -0.90457205E+00  0.00000000E+00
 -0.14173384E+01 -0.91809426E+00  0.00000000E+00
 -0.17883655E+01 -0.93492381E+00  0.00000000E+00
 -0.21715545E+01 -0.95452653E+00  0.00000000E+00
 -0.25693395E+01 -0.97584505E+00  0.00000000E+00
 -0.29829180E+01 -0.99714778E+00  0.00000000E+00
 -0.34112410E+01 -0.10158518E+01  0.00000000E+00
 -0.38500452E+01 -0.10282965E+01  0.00000000E+00
  0.38573636E+01 -0.20621781E+01  0.00000000E+00
  0.34156663E+01 -0.20370537E+01  0.00000000E+00
  0.29861352E+01 -0.19977777E+01  0.00000000E+00
  0.25727750E+01 -0.19527147E+01  0.00000000E+00
  0.21759689E+01 -0.19080691E+01  0.00000000E+00
  0.17937897E+01 -0.18678796E+01  0.00000000E+00
  0.14232344E+01 -0.18343407E+01  0.00000000E+00
  0.10611337E+01 -0.18082784E+01  0.00000000E+00
  0.70466833E+00 -0.17896743E+01  0.00000000E+00
  0.35155242E+00 -0.17781519E+01  0.00000000E+00
 -0.25738255E-10 -0.17733787E+01  0.00000000E+00
 -0.35155242E+00 -0.17781519E+01  0.00000000E+00
 -0.70466833E+00 -0.17896743E+01  0.00000000E+00
 -0.10611337E+01 -0.18082784E+01  0.00000000E+00
 -0.14232344E+01 -0.18343407E+01  0.00000000E+00
 -0.17937897E+01 -0.18678796E+01  0.00000000E+00
 -0.21759689E+01 -0.19080691E+01  0.00000000E+00
 -0.25727750E+01 -0.19527147E+01  0.00000000E+00
 -0.29861352E+01 -0.19977777E+01  0.00000000E+00
 -0.34156663E+01 -0.20370537E+01  0.00000000E+00
 -0.38573636E+01 -0.20621781E+01  0.00000000E+00
  0.38709360E+01 -0.31065143E+01  0.00000000E+00
  0.34243799E+01 -0.30644658E+01  0.00000000E+00
  0.29932482E+01 -0.30005548E+01  0.00000000E+00
  0.25808137E+01 -0.29287850E+01  0.00000000E+00
  0.21860250E+01 -0.28592574E+01  0.00000000E+00
  0.18055568E+01 -0.27981557E+01  0.00000000E+00
  0.14354623E+01 -0.27484186E+01  0.00000000E+00
  0.10721940E+01 -0.27107168E+01  0.00000000E+00
  0.71302169E+00 -0.26844538E+01  0.00000000E+00
  0.35604128E+00 -0.26685943E+01  0.00000000E+00
 -0.11683320E-10 -0.26622474E+01  0.00000000E+00
 -0.35604128E+00 -0.26685943E+01  0.00000000E+00
 -0.71302169E+00 -0.26844538E+01  0.00000000E+00
 -0.10721940E+01 -0.27107168E+01  0.00000000E+00
 -0.14354623E+01 -0.27484186E+01  0.00000000E+00
 -0.18055568E+01 -0.27981557E+01  0.00000000E+00
 -0.21860250E+01 -0.28592574E+01  0.00000000E+00
 -0.25808137E+01 -0.29287850E+01  0.00000000E+00
 -0.29932482E+01 -0.30005548E+01  0.00000000E+00
 -0.34243799E+01 -0.30644658E+01  0.00000000E+00
 -0.38709360E+01 -0.31065143E+01  0.00000000E+00
  0.38942737E+01 -0.41678029E+01  0.00000000E+00
  0.34405059E+01 -0.41012715E+01  0.00000000E+00
  0.30076986E+01 -0.40058451E+01  0.00000000E+00
  0.25973543E+01 -0.39027476E+01  0.00000000E+00
  0.22057721E+01 -0.38062819E+01  0.00000000E+00
  0.18273989E+01 -0.37242721E+01  0.00000000E+00
  0.14570678E+01 -0.36595593E+01  0.00000000E+00
  0.10909941E+01 -0.36118555E+01  0.00000000E+00
  0.72683994E+00 -0.35794203E+01  0.00000000E+00
  0.36335524E+00 -0.35602450E+01  0.00000000E+00
  0.52547833E-10 -0.35527134E+01  0.00000000E+00
 -0.36335524E+00 -0.35602450E+01  0.00000000E+00
 -0.72683994E+00 -0.35794203E+01  0.00000000E+00
 -0.10909941E+01 -0.36118555E+01  0.00000000E+00
 -0.14570678E+01 -0.36595593E+01  0.00000000E+00
 -0.18273989E+01 -0.37242721E+01  0.00000000E+00
 -0.22057721E+01 -0.38062819E+01  0.00000000E+00
 -0.25973543E+01 -0.39027476E+01  0.00000000E+00
 -0.30076986E+01 -0.40058451E+01  0.00000000E+00
 -0.34405059E+01 -0.41012715E+01  0.00000000E+00
 -0.38942737E+01 -0.41678029E+01  0.00000000E+00
  0.39333012E+01 -0.52544421E+01  0.00000000E+00
  0.34693367E+01 -0.51505730E+01  0.00000000E+00
  0.30353839E+01 -0.50129896E+01  0.00000000E+00
  0.26289011E+01 -0.48722912E+01  0.00000000E+00
  0.22415665E+01 -0.47469110E+01  0.00000000E+00
  0.18646968E+01 -0.46449939E+01  0.00000000E+00
  0.14920316E+01 -0.45676759E+01  0.00000000E+00
  0.11201499E+01 -0.45124852E+01  0.00000000E+00
  0.74764043E+00 -0.44759053E+01  0.00000000E+00
  0.37417932E+00 -0.44547441E+01  0.00000000E+00
 -0.93310031E-10 -0.44466071E+01  0.00000000E+00
 -0.37417932E+00 -0.44547441E+01  0.00000000E+00
 -0.74764043E+00 -0.44759053E+01  0.00000000E+00
 -0.11201499E+01 -0.45124852E+01  0.00000000E+00
 -0.14920316E+01 -0.45676759E+01  0.00000000E+00
 -0.18646968E+01 -0.46449939E+01  0.00000000E+00
 -0.22415665E+01 -0.47469110E+01  0.00000000E+00
 -0.26289011E+01 -0.48722912E+01  0.00000000E+00
 -0.30353839E+01 -0.50129896E+01  0.00000000E+00
 -0.34693367E+01 -0.51505730E+01  0.00000000E+00
 -0.39333012E+01 -0.52544421E+01  0.00000000E+00
  0.39980090E+01 -0.63780798E+01  0.00000000E+00
  0.35198568E+01 -0.62149834E+01  0.00000000E+00
  0.30862923E+01 -0.60195064E+01  0.00000000E+00
  0.26858543E+01 -0.58337823E+01  0.00000000E+00
  0.23025416E+01 -0.56788631E+01  0.00000000E+00
  0.19241269E+01 -0.55600729E+01  0.00000000E+00
  0.15445295E+01 -0.54740205E+01  0.00000000E+00
  0.11619837E+01 -0.54145902E+01  0.00000000E+00
  0.77657169E+00 -0.53761560E+01  0.00000000E+00
  0.38896991E+00 -0.53544380E+01  0.00000000E+00
  0.13068175E-09 -0.53464158E+01  0.00000000E+00
 -0.38896991E+00 -0.53544380E+01  0.00000000E+00
 -0.77657168E+00 -0.53761560E+01  0.00000000E+00
 -0.11619837E+01 -0.54145902E+01  0.00000000E+00
 -0.15445295E+01 -0.54740205E+01  0.00000000E+00
 -0.19241269E+01 -0.55600729E+01  0.00000000E+00
 -0.23025416E+01 -0.56788631E+01  0.00000000E+00
 -0.26858543E+01 -0.58337823E+01  0.00000000E+00
 -0.30862923E+01 -0.60195064E+01  0.00000000E+00
 -0.35198568E+01 -0.62149834E+01  0.00000000E+00
 -0.39980090E+01 -0.63780798E+01  0.00000000E+00
  0.41059187E+01 -0.75557302E+01  0.00000000E+00
  0.36080384E+01 -0.72955523E+01  0.00000000E+00
  0.31777489E+01 -0.70199082E+01  0.00000000E+00
  0.27843883E+01 -0.67825079E+01  0.00000000E+00
  0.24002981E+01 -0.66013220E+01  0.00000000E+00
  0.20120450E+01 -0.64717877E+01  0.00000000E+00
  0.16173789E+01 -0.63819492E+01  0.00000000E+00
  0.12174044E+01 -0.63215287E+01  0.00000000E+00
  0.81372547E+00 -0.62832048E+01  0.00000000E+00
  0.40763252E+00 -0.62621052E+01  0.00000000E+00
 -0.16112137E-09 -0.62549708E+01  0.00000000E+00
 -0.40763252E+00 -0.62621052E+01  0.00000000E+00
 -0.81372547E+00 -0.62832048E+01  0.00000000E+00
 -0.12174044E+01 -0.63215287E+01  0.00000000E+00
 -0.16173789E+01 -0.63819492E+01  0.00000000E+00
 -0.20120450E+01 -0.64717877E+01  0.00000000E+00
 -0.24002981E+01 -0.66013220E+01  0.00000000E+00
 -0.27843883E+01 -0.67825079E+01  0.00000000E+00
 -0.31777489E+01 -0.70199082E+01  0.00000000E+00
 -0.36080384E+01 -0.72955523E+01  0.00000000E+00
 -0.41059187E+01 -0.75557302E+01  0.00000000E+00
  0.42895372E+01 -0.88128514E+01  0.00000000E+00
  0.37642581E+01 -0.83891558E+01  0.00000000E+00
  0.33410154E+01 -0.80043389E+01  0.00000000E+00
  0.29476825E+01 -0.77154400E+01  0.00000000E+00
  0.25448211E+01 -0.75192409E+01  0.00000000E+00
  0.21308783E+01 -0.73867174E+01  0.00000000E+00
  0.17096755E+01 -0.72971745E+01  0.00000000E+00
  0.12844964E+01 -0.72376796E+01  0.00000000E+00
  0.85735533E+00 -0.72003157E+01  0.00000000E+00
  0.42917347E+00 -0.71803364E+01  0.00000000E+00
  0.18022658E-09 -0.71748353E+01  0.00000000E+00
 -0.42917347E+00 -0.71803364E+01  0.00000000E+00
 -0.85735533E+00 -0.72003157E+01  0.00000000E+00
 -0.12844964E+01 -0.72376796E+01  0.00000000E+00
 -0.17096755E+01 -0.72971745E+01  0.00000000E+00
 -0.21308783E+01 -0.73867174E+01  0.00000000E+00
 -0.25448211E+01 -0.75192409E+01  0.00000000E+00
 -0.29476825E+01 -0.77154400E+01  0.00000000E+00
 -0.33410154E+01 -0.80043389E+01  0.00000000E+00
 -0.37642581E+01 -0.83891558E+01  0.00000000E+00
 -0.42895372E+01 -0.88128514E+01  0.00000000E+00
  0.46118399E+01 -0.10187106E+02  0.00000000E+00
  0.40524204E+01 -0.94813274E+01  0.00000000E+00
  0.36359302E+01 -0.89589429E+01  0.00000000E+00
  0.31925815E+01 -0.86464533E+01  0.00000000E+00
  0.27351401E+01 -0.84476346E+01  0.00000000E+00
  0.22740277E+01 -0.83156907E+01  0.00000000E+00
  0.18141150E+01 -0.82266414E+01  0.00000000E+00
  0.13571314E+01 -0.81672454E+01  0.00000000E+00