# vtk DataFile Version 2.0
MEF - Elasticidade Plana 2D
ASCII
DATASET UNSTRUCTURED_GRID
POINTS      121 float
  0.00000000E+00  0.10000000E+01  0.00000000E+00
  0.10000000E+00  0.10000000E+01  0.00000000E+00
  0.20000000E+00  0.10000000E+01  0.00000000E+00
  0.30000000E+00  0.10000000E+01  0.00000000E+00
  0.40000000E+00  0.10000000E+01  0.00000000E+00
  0.50000000E+00  0.10000000E+01  0.00000000E+00
  0.60000000E+00  0.10000000E+01  0.00000000E+00
  0.70000000E+00  0.10000000E+01  0.00000000E+00
  0.80000000E+00  0.10000000E+01  0.00000000E+00
  0.90000000E+00  0.10000000E+01  0.00000000E+00
  0.10000000E+01  0.10000000E+01  0.00000000E+00
  0.00000000E+00  0.90000000E+00  0.00000000E+00
  0.10000000E+00  0.90000000E+00  0.00000000E+00
  0.20000000E+00  0.90000000E+00  0.00000000E+00
  0.30000000E+00  0.90000000E+00  0.00000000E+00
  0.40000000E+00  0.90000000E+00  0.00000000E+00
  0.50000000E+00  0.90000000E+00  0.00000000E+00
  0.60000000E+00  0.90000000E+00  0.00000000E+00
  0.70000000E+00  0.90000000E+00  0.00000000E+00
  0.80000000E+00  0.90000000E+00  0.00000000E+00
  0.90000000E+00  0.90000000E+00  0.00000000E+00
  0.10000000E+01  0.90000000E+00  0.00000000E+00
  0.00000000E+00  0.80000000E+00  0.00000000E+00
  0.10000000E+00  0.80000000E+00  0.00000000E+00
  0.20000000E+00  0.80000000E+00  0.00000000E+00
  0.30000000E+00  0.80000000E+00  0.00000000E+00
  0.40000000E+00  0.80000000E+00  0.00000000E+00
  0.50000000E+00  0.80000000E+00  0.00000000E+00
  0.60000000E+00  0.80000000E+00  0.00000000E+00
  0.70000000E+00  0.80000000E+00  0.00000000E+00
  0.80000000E+00  0.80000000E+00  0.00000000E+00
  0.90000000E+00  0.80000000E+00  0.00000000E+00
  0.10000000E+01  0.80000000E+00  0.00000000E+00
  0.00000000E+00  0.70000000E+00  0.00000000E+00
  0.10000000E+00  0.70000000E+00  0.00000000E+00
  0.20000000E+00  0.70000000E+00  0.00000000E+00
  0.30000000E+00  0.70000000E+00  0.00000000E+00
  0.40000000E+00  0.70000000E+00  0.00000000E+00
  0.50000000E+00  0.70000000E+00  0.00000000E+00
  0.60000000E+00  0.70000000E+00  0.00000000E+00
  0.70000000E+00  0.70000000E+00  0.00000000E+00
  0.80000000E+00  0.70000000E+00  0.00000000E+00
  0.90000000E+00  0.70000000E+00  0.00000000E+00
  0.10000000E+01  0.70000000E+00  0.00000000E+00
  0.00000000E+00  0.60000000E+00  0.00000000E+00
  0.10000000E+00  0.60000000E+00  0.00000000E+00
  0.20000000E+00  0.60000000E+00  0.00000000E+00
  0.30000000E+00  0.60000000E+00  0.00000000E+00
  0.40000000E+00  0.60000000E+00  0.00000000E+00
  0.50000000E+00  0.60000000E+00  0.00000000E+00
  0.60000000E+00  0.60000000E+00  0.00000000E+00
  0.70000000E+00  0.60000000E+00  0.00000000E+00
  0.80000000E+00  0.60000000E+00  0.00000000E+00
  0.90000000E+00  0.60000000E+00  0.00000000E+00
  0.10000000E+01  0.60000000E+00  0.00000000E+00
  0.00000000E+00  0.50000000E+00  0.00000000E+00
  0.10000000E+00  0.50000000E+00  0.00000000E+00
  0.20000000E+00  0.50000000E+00  0.00000000E+00
  0.30000000E+00  0.50000000E+00  0.00000000E+00
  0.40000000E+00  0.50000000E+00  0.00000000E+00
  0.50000000E+00  0.50000000E+00  0.00000000E+00
  0.60000000E+00  0.50000000E+00  0.00000000E+00
  0.70000000E+00  0.50000000E+00  0.00000000E+00
  0.80000000E+00  0.50000000E+00  0.00000000E+00
  0.90000000E+00  0.50000000E+00  0.00000000E+00
  0.10000000E+01  0.50000000E+00  0.00000000E+00
  0.00000000E+00  0.40000000E+00  0.00000000E+00
  0.10000000E+00  0.40000000E+00  0.00000000E+00
  0.20000000E+00  0.40000000E+00  0.00000000E+00
  0.30000000E+00  0.40000000E+00  0.00000000E+00
  0.40000000E+00  0.40000000E+00  0.00000000E+00
  0.50000000E+00  0.40000000E+00  0.00000000E+00
  0.60000000E+00  0.40000000E+00  0.00000000E+00
  0.70000000E+00  0.40000000E+00  0.00000000E+00
  0.80000000E+00  0.40000000E+00  0.00000000E+00
  0.90000000E+00  0.40000000E+00  0.00000000E+00
  0.10000000E+01  0.40000000E+00  0.00000000E+00
  0.00000000E+00  0.30000000E+00  0.00000000E+00
  0.10000000E+00  0.30000000E+00  0.00000000E+00
  0.20000000E+00  0.30000000E+00  0.00000000E+00
  0.30000000E+00  0.30000000E+00  0.00000000E+00
  0.40000000E+00  0.30000000E+00  0.00000000E+00
  0.50000000E+00  0.30000000E+00  0.00000000E+00
  0.60000000E+00  0.30000000E+00  0.00000000E+00
  0.70000000E+00  0.30000000E+00  0.00000000E+00
  0.80000000E+00  0.30000000E+00  0.00000000E+00
  0.90000000E+00  0.30000000E+00  0.00000000E+00
  0.10000000E+01  0.30000000E+00  0.00000000E+00
  0.00000000E+00  0.20000000E+00  0.00000000E+00
  0.10000000E+00  0.20000000E+00  0.00000000E+00
  0.20000000E+00  0.20000000E+00  0.00000000E+00
  0.30000000E+00  0.20000000E+00  0.00000000E+00
  0.40000000E+00  0.20000000E+00  0.00000000E+00
  0.50000000E+00  0.20000000E+00  0.00000000E+00
  0.60000000E+00  0.20000000E+00  0.00000000E+00
  0.70000000E+00  0.20000000E+00  0.00000000E+00
  0.80000000E+00  0.20000000E+00  0.00000000E+00
  0.90000000E+00  0.20000000E+00  0.00000000E+00
  0.10000000E+01  0.20000000E+00  0.00000000E+00
  0.00000000E+00  0.10000000E+00  0.00000000E+00
  0.10000000E+00  0.10000000E+00  0.00000000E+00
  0.20000000E+00  0.10000000E+00  0.00000000E+00
  0.30000000E+00  0.10000000E+00  0.00000000E+00
  0.40000000E+00  0.10000000E+00  0.00000000E+00
  0.50000000E+00  0.10000000E+00  0.00000000E+00
  0.60000000E+00  0.10000000E+00  0.00000000E+00
  0.70000000E+00  0.10000000E+00  0.00000000E+00
  0.80000000E+00  0.10000000E+00  0.00000000E+00
  0.90000000E+00  0.10000000E+00  0.00000000E+00
  0.10000000E+01  0.10000000E+00  0.00000000E+00
  0.00000000E+00  0.00000000E+00  0.00000000E+00
  0.10000000E+00  0.00000000E+00  0.00000000E+00
  0.20000000E+00  0.00000000E+00  0.00000000E+00
  0.30000000E+00  0.00000000E+00  0.00000000E+00
  0.40000000E+00  0.00000000E+00  0.00000000E+00
  0.50000000E+00  0.00000000E+00  0.00000000E+00
  0.60000000E+00  0.00000000E+00  0.00000000E+00
  0.70000000E+00  0.00000000E+00  0.00000000E+00
  0.80000000E+00  0.00000000E+00  0.00000000E+00
  0.90000000E+00  0.00000000E+00  0.00000000E+00
  0.10000000E+01  0.00000000E+00  0.00000000E+00
CELLS      200     800
       3       0      11      12
       3       0      12       1
       3       1      12      13
       3       1      13       2
       3       2      13      14
       3       2      14       3
       3       3      14      15
       3       3      15       4
       3       4      15      16
       3       4      16       5
       3       5      16      17
       3       5      17       6
       3       6      17      18
       3       6      18       7
       3       7      18      19
       3       7      19       8
       3       8      19      20
       3       8      20       9
       3       9      20      21
       3       9      21      10
       3      11      22      23
       3      11      23      12
       3      12      23      24
       3      12      24      13
       3      13      24      25
       3      13      25      14
       3      14      25      26
       3      14      26      15
       3      15      26      27
       3      15      27      16
       3      16      27      28
       3      16      28      17
       3      17      28      29
       3      17      29      18
       3      18      29      30
       3      18      30      19
       3      19      30      31
       3      19      31      20
       3      20      31      32
       3      20      32      21
       3      22      33      34
       3      22      34      23
       3      23      34      35
       3      23      35      24
       3      24      35      36
       3      24      36      25
       3      25      36      37
       3      25      37      26
       3      26      37      38
       3      26      38      27
       3      27      38      39
       3      27      39      28
       3      28      39      40
       3      28      40      29
       3      29      40      41
       3      29      41      30
       3      30      41      42
       3      30      42      31
       3      31      42      43
       3      31      43      32
       3      33      44      45
       3      33      45      34
       3      34      45      46
       3      34      46      35
       3      35      46      47
       3      35      47      36
       3      36      47      48
       3      36      48      37
       3      37      48      49
       3      37      49      38
       3      38      49      50
       3      38      50      39
       3      39      50      51
       3      39      51      40
       3      40      51      52
       3      40      52      41
       3      41      52      53
       3      41      53      42
       3      42      53      54
       3      42      54      43
       3      44      55      56
       3      44      56      45
       3      45      56      57
       3      45      57      46
       3      46      57      58
       3      46      58      47
       3      47      58      59
       3      47      59      48
       3      48      59      60
       3      48      60      49
       3      49      60      61
       3      49      61      50
       3      50      61      62
       3      50      62      51
       3      51      62      63
       3      51      63      52
       3      52      63      64
       3      52      64      53
       3      53      64      65
       3      53      65      54
       3      55      66      67
       3      55      67      56
       3      56      67      68
       3      56      68      57
       3      57      68      69
       3      57      69      58
       3      58      69      70
       3      58      70      59
       3      59      70      71
       3      59      71      60
       3      60      71      72
       3      60      72      61
       3      61      72      73
       3      61      73      62
       3      62      73      74
       3      62      74      63
       3      63      74      75
       3      63      75      64
       3      64      75      76
       3      64      76      65
       3      66      77      78
       3      66      78      67
       3      67      78      79
       3      67      79      68
       3      68      79      80
       3      68      80      69
       3      69      80      81
       3      69      81      70
       3      70      81      82
       3      70      82      71
       3      71      82      83
       3      71      83      72
       3      72      83      84
       3      72      84      73
       3      73      84      85
       3      73      85      74
       3      74      85      86
       3      74      86      75
       3      75      86      87
       3      75      87      76
       3      77      88      89
       3      77      89      78
       3      78      89      90
       3      78      90      79
       3      79      90      91
       3      79      91      80
       3      80      91      92
       3      80      92      81
       3      81      92      93
       3      81      93      82
       3      82      93      94
       3      82      94      83
       3      83      94      95
       3      83      95      84
       3      84      95      96
       3      84      96      85
       3      85      96      97
       3      85      97      86
       3      86      97      98
       3      86      98      87
       3      88      99     100
       3      88     100      89
       3      89     100     101
       3      89     101      90
       3      90     101     102
       3      90     102      91
       3      91     102     103
       3      91     103      92
       3      92     103     104
       3      92     104      93
       3      93     104     105
       3      93     105      94
       3      94     105     106
       3      94     106      95
       3      95     106     107
       3      95     107      96
       3      96     107     108
       3      96     108      97
       3      97     108     109
       3      97     109      98
       3      99     110     111
       3      99     111     100
       3     100     111     112
       3     100     112     101
       3     101     112     113
       3     101     113     102
       3     102     113     114
       3     102     114     103
       3     103     114     115
       3     103     115     104
       3     104     115     116
       3     104     116     105
       3     105     116     117
       3     105     117     106
       3     106     117     118
       3     106     118     107
       3     107     118     119
       3     107     119     108
       3     108     119     120
       3     108     120     109
CELL_TYPES      200
 5
 5
 5
 5
 5
 5
 5
 5
 5
 5
 5
 5
 5
 5
 5
 5
 5
 5
 5
 5
 5
 5
 5
 5
 5
 5
 5
 5
 5
 5
 5
 5
 5
 5
 5
 5
 5
 5
 5
 5
 5
 5
 5
 5
 5
 5
 5
 5
 5
 5
 5
 5
 5
 5
 5
 5
 5
 5
 5
 5
 5
 5
 5
 5
 5
 5
 5
 5
 5
 5
 5
 5
 5
 5
 5
 5
 5
 5
 5
 5
 5
 5
 5
 5
 5
 5
 5
 5
 5
 5
 5
 5
 5
 5
 5
 5
 5
 5
 5
 5
 5
 5
 5
 5
 5
 5
 5
 5
 5
 5
 5
 5
 5
 5
 5
 5
 5
 5
 5
 5
 5
 5
 5
 5
 5
 5
 5
 5
 5
 5
 5
 5
 5
 5
 5
 5
 5
 5
 5
 5
 5
 5
 5
 5
 5
 5
 5
 5
 5
 5
 5
 5
 5
 5
 5
 5
 5
 5
 5
 5
 5
 5
 5
 5
 5
 5
 5
 5
 5
 5
 5
 5
 5
 5
 5
 5
 5
 5
 5
 5
 5
 5
 5
 5
 5
 5
 5
 5
 5
 5
 5
 5
 5
 5
 5
 5
 5
 5
 5
 5
POINT_DATA      121
VECTORS Deslocamentos float
  0.00000000E+00  0.00000000E+00  0.00000000E+00
  0.38587647E+00 -0.54723492E+00  0.00000000E+00
  0.62194597E+00 -0.93002472E+00  0.00000000E+00
  0.78966251E+00 -0.12751081E+01  0.00000000E+00
  0.91419818E+00 -0.16003937E+01  0.00000000E+00
  0.10076601E+01 -0.19098804E+01  0.00000000E+00
  0.10777577E+01 -0.22038164E+01  0.00000000E+00
  0.11307709E+01 -0.24814464E+01  0.00000000E+00
  0.11727777E+01 -0.27425758E+01  0.00000000E+00
  0.12100793E+01 -0.29890935E+01  0.00000000E+00
  0.12485357E+01 -0.32263976E+01  0.00000000E+00
  0.00000000E+00  0.00000000E+00  0.00000000E+00
  0.16113490E+00 -0.37799855E+00  0.00000000E+00
  0.35567671E+00 -0.77830147E+00  0.00000000E+00
  0.51302932E+00 -0.11409451E+01  0.00000000E+00
  0.63778898E+00 -0.14798429E+01  0.00000000E+00
  0.73631413E+00 -0.18000512E+01  0.00000000E+00
  0.81401780E+00 -0.21024051E+01  0.00000000E+00
  0.87563839E+00 -0.23863187E+01  0.00000000E+00
  0.92559093E+00 -0.26514592E+01  0.00000000E+00
  0.96827857E+00 -0.28992549E+01  0.00000000E+00
  0.10085138E+01 -0.31348541E+01  0.00000000E+00
  0.00000000E+00  0.00000000E+00  0.00000000E+00
  0.88167059E-01 -0.31115914E+00  0.00000000E+00
  0.20289543E+00 -0.66574008E+00  0.00000000E+00
  0.32224990E+00 -0.10242100E+01  0.00000000E+00
  0.42757227E+00 -0.13681247E+01  0.00000000E+00
  0.51609380E+00 -0.16952235E+01  0.00000000E+00
  0.58901384E+00 -0.20042554E+01  0.00000000E+00
  0.64864843E+00 -0.22937950E+01  0.00000000E+00
  0.69772116E+00 -0.25628084E+01  0.00000000E+00
  0.73943489E+00 -0.28114811E+01  0.00000000E+00
  0.77825955E+00 -0.30423035E+01  0.00000000E+00
  0.00000000E+00  0.00000000E+00  0.00000000E+00
  0.48423248E-01 -0.27532780E+00  0.00000000E+00
  0.11455941E+00 -0.59579727E+00  0.00000000E+00
  0.19128415E+00 -0.93547988E+00  0.00000000E+00
  0.26783487E+00 -0.12750073E+01  0.00000000E+00
  0.33716435E+00 -0.16037480E+01  0.00000000E+00
  0.39715532E+00 -0.19165409E+01  0.00000000E+00
  0.44794860E+00 -0.22100854E+01  0.00000000E+00
  0.49074842E+00 -0.24820140E+01  0.00000000E+00
  0.52761669E+00 -0.27307013E+01  0.00000000E+00
  0.56211234E+00 -0.29551156E+01  0.00000000E+00
  0.00000000E+00  0.00000000E+00  0.00000000E+00
  0.20450331E-01 -0.25276497E+00  0.00000000E+00
  0.53065173E-01 -0.55005288E+00  0.00000000E+00
  0.95255994E-01 -0.87272556E+00  0.00000000E+00
  0.14182836E+00 -0.12035774E+01  0.00000000E+00
  0.18783342E+00 -0.15299403E+01  0.00000000E+00
  0.23030500E+00 -0.18435602E+01  0.00000000E+00
  0.26817146E+00 -0.21390907E+01  0.00000000E+00
  0.30150366E+00 -0.24126579E+01  0.00000000E+00
  0.33121070E+00 -0.26608560E+01  0.00000000E+00
  0.35935354E+00 -0.28795692E+01  0.00000000E+00
  0.00000000E+00  0.00000000E+00  0.00000000E+00
 -0.31226830E-02 -0.23720218E+00  0.00000000E+00
  0.22465927E-02 -0.51947237E+00  0.00000000E+00
  0.15192089E-01 -0.82997332E+00  0.00000000E+00
  0.33749147E-01 -0.11527954E+01  0.00000000E+00
  0.55509916E-01 -0.14750804E+01  0.00000000E+00
  0.78446325E-01 -0.17873660E+01  0.00000000E+00
  0.10130173E+00 -0.20829704E+01  0.00000000E+00
  0.12348266E+00 -0.23569217E+01  0.00000000E+00
  0.14481694E+00 -0.26046527E+01  0.00000000E+00
  0.16551145E+00 -0.28202250E+01  0.00000000E+00
  0.00000000E+00  0.00000000E+00  0.00000000E+00
 -0.26513027E-01 -0.22652657E+00  0.00000000E+00
 -0.47309243E-01 -0.50043593E+00  0.00000000E+00
 -0.62026174E-01 -0.80373099E+00  0.00000000E+00
 -0.70308406E-01 -0.11207359E+01  0.00000000E+00
 -0.72525747E-01 -0.14388630E+01  0.00000000E+00
 -0.69544423E-01 -0.17485044E+01  0.00000000E+00
 -0.62340259E-01 -0.20425756E+01  0.00000000E+00
 -0.51856846E-01 -0.23157592E+01  0.00000000E+00
 -0.39201420E-01 -0.25633316E+01  0.00000000E+00
 -0.26077617E-01 -0.27792621E+01  0.00000000E+00
  0.00000000E+00  0.00000000E+00  0.00000000E+00
 -0.53744082E-01 -0.22117246E+00  0.00000000E+00
 -0.10395639E+00 -0.49282293E+00  0.00000000E+00
 -0.14800202E+00 -0.79312987E+00  0.00000000E+00
 -0.18338509E+00 -0.11063296E+01  0.00000000E+00
 -0.20908981E+00 -0.14205075E+01  0.00000000E+00
 -0.22535505E+00 -0.17265732E+01  0.00000000E+00
 -0.23314501E+00 -0.20177206E+01  0.00000000E+00
 -0.23381157E+00 -0.22889857E+01  0.00000000E+00
 -0.22925890E+00 -0.25365363E+01  0.00000000E+00
 -0.22281511E+00 -0.27561453E+01  0.00000000E+00
  0.00000000E+00  0.00000000E+00  0.00000000E+00
 -0.90838030E-01 -0.22456556E+00  0.00000000E+00
 -0.17869385E+00 -0.49957147E+00  0.00000000E+00
 -0.25646091E+00 -0.79934288E+00  0.00000000E+00
 -0.31990903E+00 -0.11092619E+01  0.00000000E+00
 -0.36784377E+00 -0.14189035E+01  0.00000000E+00
 -0.40103621E+00 -0.17202398E+01  0.00000000E+00
 -0.42131880E+00 -0.20071285E+01  0.00000000E+00
 -0.43102140E+00 -0.22752671E+01  0.00000000E+00
 -0.43290118E+00 -0.25223265E+01  0.00000000E+00
 -0.43124045E+00 -0.27475299E+01  0.00000000E+00
  0.00000000E+00  0.00000000E+00  0.00000000E+00
 -0.15033504E+00 -0.24547418E+00  0.00000000E+00
 -0.29049267E+00 -0.52665926E+00  0.00000000E+00
 -0.40737851E+00 -0.82447575E+00  0.00000000E+00
 -0.49819893E+00 -0.11288043E+01  0.00000000E+00
 -0.56435466E+00 -0.14317018E+01  0.00000000E+00
 -0.60899945E+00 -0.17265016E+01  0.00000000E+00
 -0.63606314E+00 -0.20077977E+01  0.00000000E+00
 -0.64980480E+00 -0.22718275E+01  0.00000000E+00
 -0.65456627E+00 -0.25173683E+01  0.00000000E+00
 -0.65489299E+00 -0.27475679E+01  0.00000000E+00
  0.00000000E+00  0.00000000E+00  0.00000000E+00
 -0.26823101E+00 -0.30248974E+00  0.00000000E+00
 -0.47855978E+00 -0.58098866E+00  0.00000000E+00
 -0.63272541E+00 -0.86847957E+00  0.00000000E+00
 -0.74247539E+00 -0.11613233E+01  0.00000000E+00
 -0.81644853E+00 -0.14535394E+01  0.00000000E+00
 -0.86170410E+00 -0.17393190E+01  0.00000000E+00
 -0.88486840E+00 -0.20137178E+01  0.00000000E+00
 -0.89271807E+00 -0.22732872E+01  0.00000000E+00
 -0.89236695E+00 -0.25170961E+01  0.00000000E+00
 -0.89065968E+00 -0.27493054E+01  0.00000000E+00
SCALARS SX float 1
LOOKUP_TABLE default
  0.31936254E+01
  0.27210426E+01
  0.16763732E+01
  0.11233674E+01
  0.74542777E+00
  0.46514978E+00
  0.25594162E+00
  0.10941816E+00
  0.24203305E-01
 -0.10959071E-02
 -0.10453064E-01
  0.17131665E+01
  0.21569131E+01
  0.15932267E+01
  0.11426703E+01
  0.80346216E+00
  0.54097264E+00
  0.33789743E+00
  0.18606747E+00
  0.81954420E-01
  0.24720484E-01
  0.68525108E-02
  0.93962023E+00
  0.11556348E+01
  0.11584269E+01
  0.94005481E+00
  0.71115156E+00
  0.51079407E+00
  0.34437377E+00
  0.21109386E+00
  0.10967112E+00
  0.41340712E-01
  0.14522545E-01
  0.48294185E+00
  0.62875223E+00
  0.67583552E+00
  0.63279474E+00
  0.52138379E+00
  0.39661679E+00
  0.28041771E+00
  0.18001074E+00
  0.97834569E-01
  0.36960874E-01
  0.15493431E-01
  0.13958813E+00
  0.25607847E+00
  0.30351165E+00
  0.31635854E+00
  0.28786876E+00
  0.23386420E+00
  0.17302045E+00
  0.11498731E+00
  0.63891024E-01
  0.22578497E-01
  0.13629313E-01
 -0.16752281E+00
 -0.59457890E-01
 -0.13277210E-01
  0.24521944E-01
  0.45184810E-01
  0.49125105E-01
  0.42537282E-01
  0.31345309E-01
  0.18400683E-01
  0.41586339E-02
  0.11020268E-01
 -0.48939313E+00
 -0.37009348E+00
 -0.31783507E+00
 -0.25655136E+00
 -0.19538981E+00
 -0.14110428E+00
 -0.95946194E-01
 -0.59441159E-01
 -0.31444675E-01
 -0.14801419E-01
  0.79437633E-02
 -0.88340004E+00
 -0.72034995E+00
 -0.64492439E+00
 -0.54472044E+00
 -0.43404069E+00
 -0.32609753E+00
 -0.22894616E+00
 -0.14599754E+00
 -0.78691006E-01
 -0.31421048E-01
  0.41649005E-02
 -0.14495845E+01
 -0.11640873E+01
 -0.10255806E+01
 -0.85068168E+00
 -0.66610552E+00
 -0.49149962E+00
 -0.33820095E+00
 -0.21133661E+00
 -0.11209907E+00
 -0.41517590E-01
 -0.32508514E-05
 -0.24431159E+01
 -0.17770935E+01
 -0.14774097E+01
 -0.11624571E+01
 -0.86741512E+00
 -0.60853994E+00
 -0.39352108E+00
 -0.22612218E+00
 -0.10743365E+00
 -0.34913709E-01
 -0.16006625E-02
 -0.36108020E+01
 -0.26026733E+01
 -0.19458598E+01
 -0.14349993E+01
 -0.10222303E+01
 -0.68532598E+00
 -0.41604831E+00
 -0.21318669E+00
 -0.78310113E-01
 -0.10369299E-01
  0.13519034E-01
SCALARS SY float 1
LOOKUP_TABLE default
  0.43882642E+00
 -0.62942863E+00
 -0.88451936E+00
 -0.94301347E+00
 -0.96599135E+00
 -0.97672881E+00
 -0.98170316E+00
 -0.98377284E+00
 -0.98622712E+00
 -0.99395264E+00
 -0.10104531E+01
  0.48938123E+00
 -0.14651149E+00
 -0.80902145E+00
 -0.91181816E+00
 -0.94417303E+00
 -0.95499383E+00
 -0.95678918E+00
 -0.95572373E+00
 -0.95834959E+00
 -0.97638725E+00
 -0.10004802E+01
  0.27144407E+00
 -0.89116481E-02
 -0.45697079E+00
 -0.72644050E+00
 -0.82687267E+00
 -0.86540895E+00
 -0.87853901E+00
 -0.88281122E+00
 -0.89108238E+00
 -0.92174370E+00
 -0.97367437E+00
  0.12432734E+00
 -0.28213736E-01
 -0.31467865E+00
 -0.54261462E+00
 -0.67697552E+00
 -0.73966348E+00
 -0.76601244E+00
 -0.77721003E+00
 -0.78930882E+00
 -0.82223827E+00
 -0.88535268E+00
  0.28169329E-02
 -0.85914640E-01
 -0.26912661E+00
 -0.42767697E+00
 -0.53970081E+00
 -0.60482615E+00
 -0.63697984E+00
 -0.65208741E+00
 -0.66379528E+00
 -0.68775494E+00
 -0.74410704E+00
 -0.11090029E+00
 -0.15645858E+00
 -0.26400347E+00
 -0.35694323E+00
 -0.42871699E+00
 -0.47674542E+00
 -0.50441888E+00
 -0.51841021E+00
 -0.52551830E+00
 -0.53255473E+00
 -0.56857543E+00
 -0.22935203E+00
 -0.23127163E+00
 -0.27280042E+00
 -0.30615876E+00
 -0.33562406E+00
 -0.35925822E+00
 -0.37565833E+00
 -0.38469599E+00
 -0.38538494E+00
 -0.37358162E+00
 -0.38267922E+00
 -0.36617110E+00
 -0.30354463E+00
 -0.27798961E+00
 -0.25809789E+00
 -0.25040031E+00
 -0.25085275E+00
 -0.25467064E+00
 -0.25770588E+00
 -0.25359464E+00
 -0.22848277E+00
 -0.21260134E+00
 -0.54466213E+00
 -0.36026592E+00
 -0.26334655E+00
 -0.20160593E+00
 -0.16832944E+00
 -0.15279878E+00
 -0.14691764E+00
 -0.14481961E+00
 -0.13937311E+00
 -0.11306179E+00
 -0.83471169E-01
 -0.83820149E+00
 -0.37667055E+00
 -0.21605687E+00
 -0.13577799E+00
 -0.95021794E-01
 -0.74664299E-01
 -0.64482069E-01
 -0.58631385E-01
 -0.52568506E-01
 -0.37239331E-01
 -0.12344169E-01
 -0.15474866E+01
 -0.69773501E+00
 -0.22707414E+00
 -0.93618602E-01
 -0.38677983E-01
 -0.14611562E-01
 -0.44147021E-02
 -0.10453968E-02
 -0.11833205E-02
 -0.10918313E-02
  0.13845000E-01
SCALARS TXY float 1
LOOKUP_TABLE default
 -0.13470998E+01
 -0.78791697E+00
 -0.36069883E+00
 -0.23024513E+00
 -0.16771309E+00
 -0.12736502E+00
 -0.93419771E-01
 -0.59549011E-01
 -0.24703085E-01
  0.53876556E-02
  0.10453073E-01
 -0.12746005E+01
 -0.10962940E+01
 -0.64969923E+00
 -0.43639088E+00
 -0.32082777E+00
 -0.24301100E+00
 -0.17960703E+00
 -0.12108795E+00
 -0.65118615E-01
 -0.16281951E-01
  0.45824891E-02
 -0.10998747E+01
 -0.11001211E+01
 -0.94866609E+00
 -0.73777648E+00
 -0.57695416E+00
 -0.45185111E+00
 -0.34512573E+00
 -0.24717439E+00
 -0.15429926E+00
 -0.67858488E-01
 -0.28203632E-01
 -0.99416366E+00
 -0.10276371E+01
 -0.10013624E+01
 -0.88423811E+00
 -0.74040345E+00
 -0.60299843E+00
 -0.47507227E+00
 -0.35384348E+00
 -0.23647601E+00
 -0.12013407E+00
 -0.62726690E-01
 -0.92199885E+00
 -0.96397008E+00
 -0.98604431E+00
 -0.92807448E+00
 -0.82033254E+00
 -0.69219095E+00
 -0.55966629E+00
 -0.42790130E+00
 -0.29646658E+00
 -0.15986921E+00
 -0.88248618E-01
 -0.86864178E+00
 -0.91162597E+00
 -0.95165715E+00
 -0.92107894E+00
 -0.83770515E+00
 -0.72330585E+00
 -0.59474805E+00
 -0.46128448E+00
 -0.32493267E+00
 -0.17968015E+00
 -0.10004244E+00
 -0.82948019E+00
 -0.86656062E+00
 -0.90718835E+00
 -0.88158964E+00
 -0.80718793E+00
 -0.70180772E+00
 -0.57975331E+00
 -0.45034628E+00
 -0.31713195E+00
 -0.17571611E+00
 -0.96267400E-01
 -0.80745710E+00
 -0.82294286E+00
 -0.84560028E+00
 -0.80653003E+00
 -0.72914777E+00
 -0.62856204E+00
 -0.51489423E+00
 -0.39490854E+00
 -0.27249881E+00
 -0.14699711E+00
 -0.76830989E-01
 -0.81424140E+00
 -0.76699985E+00
 -0.74226761E+00
 -0.67451030E+00
 -0.59014157E+00
 -0.49738239E+00
 -0.39937494E+00
 -0.29803274E+00
 -0.19575409E+00
 -0.96665837E-01
 -0.43968816E-01
 -0.86607965E+00
 -0.64969868E+00
 -0.53584885E+00
 -0.44121856E+00
 -0.36438652E+00
 -0.29654590E+00
 -0.23158660E+00
 -0.16611178E+00
 -0.99455312E-01
 -0.36710090E-01
 -0.57926439E-02
 -0.11634221E+01
 -0.75727038E+00
 -0.45274964E+00
 -0.30691056E+00
 -0.22498532E+00
 -0.16978071E+00
 -0.12496794E+00
 -0.83268172E-01
 -0.42020943E-01
 -0.39030687E-02
  0.21458519E-01
