# vtk DataFile Version 2.0
MEF - Elasticidade Plana 2D
ASCII
DATASET UNSTRUCTURED_GRID
POINTS      121 float
  0.00000000E+00  0.10000000E+01  0.00000000E+00
  0.10000000E+00  0.10000000E+01  0.00000000E+00
  0.20000000E+00  0.10000000E+01  0.00000000E+00
  0.30000000E+00  0.10000000E+01  0.00000000E+00
  0.40000000E+00  0.10000000E+01  0.00000000E+00
  0.50000000E+00  0.10000000E+01  0.00000000E+00
  0.60000000E+00  0.10000000E+01  0.00000000E+00
  0.70000000E+00  0.10000000E+01  0.00000000E+00
  0.80000000E+00  0.10000000E+01  0.00000000E+00
  0.90000000E+00  0.10000000E+01  0.00000000E+00
  0.10000000E+01  0.10000000E+01  0.00000000E+00
  0.00000000E+00  0.90000000E+00  0.00000000E+00
  0.10000000E+00  0.90000000E+00  0.00000000E+00
  0.20000000E+00  0.90000000E+00  0.00000000E+00
  0.30000000E+00  0.90000000E+00  0.00000000E+00
  0.40000000E+00  0.90000000E+00  0.00000000E+00
  0.50000000E+00  0.90000000E+00  0.00000000E+00
  0.60000000E+00  0.90000000E+00  0.00000000E+00
  0.70000000E+00  0.90000000E+00  0.00000000E+00
  0.80000000E+00  0.90000000E+00  0.00000000E+00
  0.90000000E+00  0.90000000E+00  0.00000000E+00
  0.10000000E+01  0.90000000E+00  0.00000000E+00
  0.00000000E+00  0.80000000E+00  0.00000000E+00
  0.10000000E+00  0.80000000E+00  0.00000000E+00
  0.20000000E+00  0.80000000E+00  0.00000000E+00
  0.30000000E+00  0.80000000E+00  0.00000000E+00
  0.40000000E+00  0.80000000E+00  0.00000000E+00
  0.50000000E+00  0.80000000E+00  0.00000000E+00
  0.60000000E+00  0.80000000E+00  0.00000000E+00
  0.70000000E+00  0.80000000E+00  0.00000000E+00
  0.80000000E+00  0.80000000E+00  0.00000000E+00
  0.90000000E+00  0.80000000E+00  0.00000000E+00
  0.10000000E+01  0.80000000E+00  0.00000000E+00
  0.00000000E+00  0.70000000E+00  0.00000000E+00
  0.10000000E+00  0.70000000E+00  0.00000000E+00
  0.20000000E+00  0.70000000E+00  0.00000000E+00
  0.30000000E+00  0.70000000E+00  0.00000000E+00
  0.40000000E+00  0.70000000E+00  0.00000000E+00
  0.50000000E+00  0.70000000E+00  0.00000000E+00
  0.60000000E+00  0.70000000E+00  0.00000000E+00
  0.70000000E+00  0.70000000E+00  0.00000000E+00
  0.80000000E+00  0.70000000E+00  0.00000000E+00
  0.90000000E+00  0.70000000E+00  0.00000000E+00
  0.10000000E+01  0.70000000E+00  0.00000000E+00
  0.00000000E+00  0.60000000E+00  0.00000000E+00
  0.10000000E+00  0.60000000E+00  0.00000000E+00
  0.20000000E+00  0.60000000E+00  0.00000000E+00
  0.30000000E+00  0.60000000E+00  0.00000000E+00
  0.40000000E+00  0.60000000E+00  0.00000000E+00
  0.50000000E+00  0.60000000E+00  0.00000000E+00
  0.60000000E+00  0.60000000E+00  0.00000000E+00
  0.70000000E+00  0.60000000E+00  0.00000000E+00
  0.80000000E+00  0.60000000E+00  0.00000000E+00
  0.90000000E+00  0.60000000E+00  0.00000000E+00
  0.10000000E+01  0.60000000E+00  0.00000000E+00
  0.00000000E+00  0.50000000E+00  0.00000000E+00
  0.10000000E+00  0.50000000E+00  0.00000000E+00
  0.20000000E+00  0.50000000E+00  0.00000000E+00
  0.30000000E+00  0.50000000E+00  0.00000000E+00
  0.40000000E+00  0.50000000E+00  0.00000000E+00
  0.50000000E+00  0.50000000E+00  0.00000000E+00
  0.60000000E+00  0.50000000E+00  0.00000000E+00
  0.70000000E+00  0.50000000E+00  0.00000000E+00
  0.80000000E+00  0.50000000E+00  0.00000000E+00
  0.90000000E+00  0.50000000E+00  0.00000000E+00
  0.10000000E+01  0.50000000E+00  0.00000000E+00
  0.00000000E+00  0.40000000E+00  0.00000000E+00
  0.10000000E+00  0.40000000E+00  0.00000000E+00
  0.20000000E+00  0.40000000E+00  0.00000000E+00
  0.30000000E+00  0.40000000E+00  0.00000000E+00
  0.40000000E+00  0.40000000E+00  0.00000000E+00
  0.50000000E+00  0.40000000E+00  0.00000000E+00
  0.60000000E+00  0.40000000E+00  0.00000000E+00
  0.70000000E+00  0.40000000E+00  0.00000000E+00
  0.80000000E+00  0.40000000E+00  0.00000000E+00
  0.90000000E+00  0.40000000E+00  0.00000000E+00
  0.10000000E+01  0.40000000E+00  0.00000000E+00
  0.00000000E+00  0.30000000E+00  0.00000000E+00
  0.10000000E+00  0.30000000E+00  0.00000000E+00
  0.20000000E+00  0.30000000E+00  0.00000000E+00
  0.30000000E+00  0.30000000E+00  0.00000000E+00
  0.40000000E+00  0.30000000E+00  0.00000000E+00
  0.50000000E+00  0.30000000E+00  0.00000000E+00
  0.60000000E+00  0.30000000E+00  0.00000000E+00
  0.70000000E+00  0.30000000E+00  0.00000000E+00
  0.80000000E+00  0.30000000E+00  0.00000000E+00
  0.90000000E+00  0.30000000E+00  0.00000000E+00
  0.10000000E+01  0.30000000E+00  0.00000000E+00
  0.00000000E+00  0.20000000E+00  0.00000000E+00
  0.10000000E+00  0.20000000E+00  0.00000000E+00
  0.20000000E+00  0.20000000E+00  0.00000000E+00
  0.30000000E+00  0.20000000E+00  0.00000000E+00
  0.40000000E+00  0.20000000E+00  0.00000000E+00
  0.50000000E+00  0.20000000E+00  0.00000000E+00
  0.60000000E+00  0.20000000E+00  0.00000000E+00
  0.70000000E+00  0.20000000E+00  0.00000000E+00
  0.80000000E+00  0.20000000E+00  0.00000000E+00
  0.90000000E+00  0.20000000E+00  0.00000000E+00
  0.10000000E+01  0.20000000E+00  0.00000000E+00
  0.00000000E+00  0.10000000E+00  0.00000000E+00
  0.10000000E+00  0.10000000E+00  0.00000000E+00
  0.20000000E+00  0.10000000E+00  0.00000000E+00
  0.30000000E+00  0.10000000E+00  0.00000000E+00
  0.40000000E+00  0.10000000E+00  0.00000000E+00
  0.50000000E+00  0.10000000E+00  0.00000000E+00
  0.60000000E+00  0.10000000E+00  0.00000000E+00
  0.70000000E+00  0.10000000E+00  0.00000000E+00
  0.80000000E+00  0.10000000E+00  0.00000000E+00
  0.90000000E+00  0.10000000E+00  0.00000000E+00
  0.10000000E+01  0.10000000E+00  0.00000000E+00
  0.00000000E+00  0.00000000E+00  0.00000000E+00
  0.10000000E+00  0.00000000E+00  0.00000000E+00
  0.20000000E+00  0.00000000E+00  0.00000000E+00
  0.30000000E+00  0.00000000E+00  0.00000000E+00
  0.40000000E+00  0.00000000E+00  0.00000000E+00
  0.50000000E+00  0.00000000E+00  0.00000000E+00
  0.60000000E+00  0.00000000E+00  0.00000000E+00
  0.70000000E+00  0.00000000E+00  0.00000000E+00
  0.80000000E+00  0.00000000E+00  0.00000000E+00
  0.90000000E+00  0.00000000E+00  0.00000000E+00
  0.10000000E+01  0.00000000E+00  0.00000000E+00
CELLS      200     800
       3       0      11      12
       3       0      12       1
       3       1      12      13
       3       1      13       2
       3       2      13      14
       3       2      14       3
       3       3      14      15
       3       3      15       4
       3       4      15      16
       3       4      16       5
       3       5      16      17
       3       5      17       6
       3       6      17      18
       3       6      18       7
       3       7      18      19
       3       7      19       8
       3       8      19      20
       3       8      20       9
       3       9      20      21
       3       9      21      10
       3      11      22      23
       3      11      23      12
       3      12      23      24
       3      12      24      13
       3      13      24      25
       3      13      25      14
       3      14      25      26
       3      14      26      15
       3      15      26      27
       3      15      27      16
       3      16      27      28
       3      16      28      17
       3      17      28      29
       3      17      29      18
       3      18      29      30
       3      18      30      19
       3      19      30      31
       3      19      31      20
       3      20      31      32
       3      20      32      21
       3      22      33      34
       3      22      34      23
       3      23      34      35
       3      23      35      24
       3      24      35      36
       3      24      36      25
       3      25      36      37
       3      25      37      26
       3      26      37      38
       3      26      38      27
       3      27      38      39
       3      27      39      28
       3      28      39      40
       3      28      40      29
       3      29      40      41
       3      29      41      30
       3      30      41      42
       3      30      42      31
       3      31      42      43
       3      31      43      32
       3      33      44      45
       3      33      45      34
       3      34      45      46
       3      34      46      35
       3      35      46      47
       3      35      47      36
       3      36      47      48
       3      36      48      37
       3      37      48      49
       3      37      49      38
       3      38      49      50
       3      38      50      39
       3      39      50      51
       3      39      51      40
       3      40      51      52
       3      40      52      41
       3      41      52      53
       3      41      53      42
       3      42      53      54
       3      42      54      43
       3      44      55      56
       3      44      56      45
       3      45      56      57
       3      45      57      46
       3      46      57      58
       3      46      58      47
       3      47      58      59
       3      47      59      48
       3      48      59      60
       3      48      60      49
       3      49      60      61
       3      49      61      50
       3      50      61      62
       3      50      62      51
       3      51      62      63
       3      51      63      52
       3      52      63      64
       3      52      64      53
       3      53      64      65
       3      53      65      54
       3      55      66      67
       3      55      67      56
       3      56      67      68
       3      56      68      57
       3      57      68      69
       3      57      69      58
       3      58      69      70
       3      58      70      59
       3      59      70      71
       3      59      71      60
       3      60      71      72
       3      60      72      61
       3      61      72      73
       3      61      73      62
       3      62      73      74
       3      62      74      63
       3      63      74      75
       3      63      75      64
       3      64      75      76
       3      64      76      65
       3      66      77      78
       3      66      78      67
       3      67      78      79
       3      67      79      68
       3      68      79      80
       3      68      80      69
       3      69      80      81
       3      69      81      70
       3      70      81      82
       3      70      82      71
       3      71      82      83
       3      71      83      72
       3      72      83      84
       3      72      84      73
       3      73      84      85
       3      73      85      74
       3      74      85      86
       3      74      86      75
       3      75      86      87
       3      75      87      76
       3      77      88      89
       3      77      89      78
       3      78      89      90
       3      78      90      79
       3      79      90      91
       3      79      91      80
       3      80      91      92
       3      80      92      81
       3      81      92      93
       3      81      93      82
       3      82      93      94
       3      82      94      83
       3      83      94      95
       3      83      95      84
       3      84      95      96
       3      84      96      85
       3      85      96      97
       3      85      97      86
       3      86      97      98
       3      86      98      87
       3      88      99     100
       3      88     100      89
       3      89     100     101
       3      89     101      90
       3      90     101     102
       3      90     102      91
       3      91     102     103
       3      91     103      92
       3      92     103     104
       3      92     104      93
       3      93     104     105
       3      93     105      94
       3      94     105     106
       3      94     106      95
       3      95     106     107
       3      95     107      96
       3      96     107     108
       3      96     108      97
       3      97     108     109
       3      97     109      98
       3      99     110     111
       3      99     111     100
       3     100     111     112
       3     100     112     101
       3     101     112     113
       3     101     113     102
       3     102     113     114
       3     102     114     103
       3     103     114     115
       3     103     115     104
       3     104     115     116
       3     104     116     105
       3     105     116     117
       3     105     117     106
       3     106     117     118
       3     106     118     107
       3     107     118     119
       3     107     119     108
       3     108     119     120
       3     108     120     109
CELL_TYPES      200
 5
 5
 5
 5
 5
 5
 5
 5
 5
 5
 5
 5
 5
 5
 5
 5
 5
 5
 5
 5
 5
 5
 5
 5
 5
 5
 5
 5
 5
 5
 5
 5
 5
 5
 5
 5
 5
 5
 5
 5
 5
 5
 5
 5
 5
 5
 5
 5
 5
 5
 5
 5
 5
 5
 5
 5
 5
 5
 5
 5
 5
 5
 5
 5
 5
 5
 5
 5
 5
 5
 5
 5
 5
 5
 5
 5
 5
 5
 5
 5
 5
 5
 5
 5
 5
 5
 5
 5
 5
 5
 5
 5
 5
 5
 5
 5
 5
 5
 5
 5
 5
 5
 5
 5
 5
 5
 5
 5
 5
 5
 5
 5
 5
 5
 5
 5
 5
 5
 5
 5
 5
 5
 5
 5
 5
 5
 5
 5
 5
 5
 5
 5
 5
 5
 5
 5
 5
 5
 5
 5
 5
 5
 5
 5
 5
 5
 5
 5
 5
 5
 5
 5
 5
 5
 5
 5
 5
 5
 5
 5
 5
 5
 5
 5
 5
 5
 5
 5
 5
 5
 5
 5
 5
 5
 5
 5
 5
 5
 5
 5
 5
 5
 5
 5
 5
 5
 5
 5
 5
 5
 5
 5
 5
 5
 5
 5
 5
 5
 5
 5
POINT_DATA      121
VECTORS Deslocamentos float
  0.00000000E+00  0.00000000E+00  0.00000000E+00
  0.38587647E+00 -0.54723492E+00  0.00000000E+00
  0.62194597E+00 -0.93002472E+00  0.00000000E+00
  0.78966251E+00 -0.12751081E+01  0.00000000E+00
  0.91419818E+00 -0.16003937E+01  0.00000000E+00
  0.10076601E+01 -0.19098804E+01  0.00000000E+00
  0.10777577E+01 -0.22038164E+01  0.00000000E+00
  0.11307709E+01 -0.24814464E+01  0.00000000E+00
  0.11727777E+01 -0.27425758E+01  0.00000000E+00
  0.12100793E+01 -0.29890935E+01  0.00000000E+00
  0.12485357E+01 -0.32263976E+01  0.00000000E+00
  0.00000000E+00  0.00000000E+00  0.00000000E+00
  0.16113490E+00 -0.37799855E+00  0.00000000E+00
  0.35567671E+00 -0.77830147E+00  0.00000000E+00
  0.51302932E+00 -0.11409451E+01  0.00000000E+00
  0.63778898E+00 -0.14798429E+01  0.00000000E+00
  0.73631413E+00 -0.18000512E+01  0.00000000E+00
  0.81401780E+00 -0.21024051E+01  0.00000000E+00
  0.87563839E+00 -0.23863187E+01  0.00000000E+00
  0.92559093E+00 -0.26514592E+01  0.00000000E+00
  0.96827857E+00 -0.28992549E+01  0.00000000E+00
  0.10085138E+01 -0.31348541E+01  0.00000000E+00
  0.00000000E+00  0.00000000E+00  0.00000000E+00
  0.88167059E-01 -0.31115914E+00  0.00000000E+00
  0.20289543E+00 -0.66574008E+00  0.00000000E+00
  0.32224990E+00 -0.10242100E+01  0.00000000E+00
  0.42757227E+00 -0.13681247E+01  0.00000000E+00
  0.51609380E+00 -0.16952235E+01  0.00000000E+00
  0.58901384E+00 -0.20042554E+01  0.00000000E+00
  0.64864843E+00 -0.22937950E+01  0.00000000E+00
  0.69772116E+00 -0.25628084E+01  0.00000000E+00
  0.73943489E+00 -0.28114811E+01  0.00000000E+00
  0.77825955E+00 -0.30423035E+01  0.00000000E+00
  0.00000000E+00  0.00000000E+00  0.00000000E+00
  0.48423248E-01 -0.27532780E+00  0.00000000E+00
  0.11455941E+00 -0.59579727E+00  0.00000000E+00
  0.19128415E+00 -0.93547988E+00  0.00000000E+00
  0.26783487E+00 -0.12750073E+01  0.00000000E+00
  0.33716435E+00 -0.16037480E+01  0.00000000E+00
  0.39715532E+00 -0.19165409E+01  0.00000000E+00
  0.44794860E+00 -0.22100854E+01  0.00000000E+00
  0.49074842E+00 -0.24820140E+01  0.00000000E+00
  0.52761669E+00 -0.27307013E+01  0.00000000E+00
  0.56211234E+00 -0.29551156E+01  0.00000000E+00
  0.00000000E+00  0.00000000E+00  0.00000000E+00
  0.20450331E-01 -0.25276497E+00  0.00000000E+00
  0.53065173E-01 -0.55005288E+00  0.00000000E+00
  0.95255994E-01 -0.87272556E+00  0.00000000E+00
  0.14182836E+00 -0.12035774E+01  0.00000000E+00
  0.18783342E+00 -0.15299403E+01  0.00000000E+00
  0.23030500E+00 -0.18435602E+01  0.00000000E+00
  0.26817146E+00 -0.21390907E+01  0.00000000E+00
  0.30150366E+00 -0.24126579E+01  0.00000000E+00
  0.33121070E+00 -0.26608560E+01  0.00000000E+00
  0.35935354E+00 -0.28795692E+01  0.00000000E+00
  0.00000000E+00  0.00000000E+00  0.00000000E+00
 -0.31226830E-02 -0.23720218E+00  0.00000000E+00
  0.22465927E-02 -0.51947237E+00  0.00000000E+00
  0.15192089E-01 -0.82997332E+00  0.00000000E+00
  0.33749147E-01 -0.11527954E+01  0.00000000E+00
  0.55509916E-01 -0.14750804E+01  0.00000000E+00
  0.78446325E-01 -0.17873660E+01  0.00000000E+00
  0.10130173E+00 -0.20829704E+01  0.00000000E+00
  0.12348266E+00 -0.23569217E+01  0.00000000E+00
  0.14481694E+00 -0.26046527E+01  0.00000000E+00
  0.16551145E+00 -0.28202250E+01  0.00000000E+00
  0.00000000E+00  0.00000000E+00  0.00000000E+00
 -0.26513027E-01 -0.22652657E+00  0.00000000E+00
 -0.47309243E-01 -0.50043593E+00  0.00000000E+00
 -0.62026174E-01 -0.80373099E+00  0.00000000E+00
 -0.70308406E-01 -0.11207359E+01  0.00000000E+00
 -0.72525747E-01 -0.14388630E+01  0.00000000E+00
 -0.69544423E-01 -0.17485044E+01  0.00000000E+00
 -0.62340259E-01 -0.20425756E+01  0.00000000E+00
 -0.51856846E-01 -0.23157592E+01  0.00000000E+00
 -0.39201420E-01 -0.25633316E+01  0.00000000E+00
 -0.26077617E-01 -0.27792621E+01  0.00000000E+00
  0.00000000E+00  0.00000000E+00  0.00000000E+00
 -0.53744082E-01 -0.22117246E+00  0.00000000E+00
 -0.10395639E+00 -0.49282293E+00  0.00000000E+00
 -0.14800202E+00 -0.79312987E+00  0.00000000E+00
 -0.18338509E+00 -0.11063296E+01  0.00000000E+00
 -0.20908981E+00 -0.14205075E+01  0.00000000E+00
 -0.22535505E+00 -0.17265732E+01  0.00000000E+00
 -0.23314501E+00 -0.20177206E+01  0.00000000E+00
 -0.23381157E+00 -0.22889857E+01  0.00000000E+00
 -0.22925890E+00 -0.25365363E+01  0.00000000E+00
 -0.22281511E+00 -0.27561453E+01  0.00000000E+00
  0.00000000E+00  0.00000000E+00  0.00000000E+00
 -0.90838030E-01 -0.22456556E+00  0.00000000E+00
 -0.17869385E+00 -0.49957147E+00  0.00000000E+00
 -0.25646091E+00 -0.79934288E+00  0.00000000E+00
 -0.31990903E+00 -0.11092619E+01  0.00000000E+00
 -0.36784377E+00 -0.14189035E+01  0.00000000E+00
 -0.40103621E+00 -0.17202398E+01  0.00000000E+00
 -0.42131880E+00 -0.20071285E+01  0.00000000E+00
 -0.43102140E+00 -0.22752671E+01  0.00000000E+00
 -0.43290118E+00 -0.25223265E+01  0.00000000E+00
 -0.43124045E+00 -0.27475299E+01  0.00000000E+00
  0.00000000E+00  0.00000000E+00  0.00000000E+00
 -0.15033504E+00 -0.24547418E+00  0.00000000E+00
 -0.29049267E+00 -0.52665926E+00  0.00000000E+00
 -0.40737851E+00 -0.82447575E+00  0.00000000E+00
 -0.49819893E+00 -0.11288043E+01  0.00000000E+00
 -0.56435466E+00 -0.14317018E+01  0.00000000E+00
 -0.60899945E+00 -0.17265016E+01  0.00000000E+00
 -0.63606314E+00 -0.20077977E+01  0.00000000E+00
 -0.64980480E+00 -0.22718275E+01  0.00000000E+00
 -0.65456627E+00 -0.25173683E+01  0.00000000E+00
 -0.65489299E+00 -0.27475679E+01  0.00000000E+00
  0.00000000E+00  0.00000000E+00  0.00000000E+00
 -0.26823101E+00 -0.30248974E+00  0.00000000E+00
 -0.47855978E+00 -0.58098866E+00  0.00000000E+00
 -0.63272541E+00 -0.86847957E+00  0.00000000E+00
 -0.74247539E+00 -0.11613233E+01  0.00000000E+00
 -0.81644853E+00 -0.14535394E+01  0.00000000E+00
 -0.86170410E+00 -0.17393190E+01  0.00000000E+00
 -0.88486840E+00 -0.20137178E+01  0.00000000E+00
 -0.89271807E+00 -0.22732872E+01  0.00000000E+00
 -0.89236695E+00 -0.25170961E+01  0.00000000E+00
 -0.89065968E+00 -0.27493054E+01  0.00000000E+00
CELL_DATA      200
TENSORS Stress float
  0.92962442E+00 -0.14538406E+01  0.00000000E+00
 -0.14538406E+01  0.21691236E+01  0.00000000E+00
  0.00000000E+00  0.00000000E+00  0.00000000E+00
 -0.51971572E-01 -0.12403590E+01  0.00000000E+00
 -0.12403590E+01  0.42181272E+01  0.00000000E+00
  0.00000000E+00  0.00000000E+00  0.00000000E+00
 -0.11558254E+01 -0.67523597E+00  0.00000000E+00
 -0.67523597E+00  0.16424684E+01  0.00000000E+00
  0.00000000E+00  0.00000000E+00  0.00000000E+00
 -0.68048897E+00 -0.44815592E+00  0.00000000E+00
 -0.44815592E+00  0.23025323E+01  0.00000000E+00
  0.00000000E+00  0.00000000E+00  0.00000000E+00
 -0.11346249E+01 -0.37067076E+00  0.00000000E+00
 -0.37067076E+00  0.12428817E+01  0.00000000E+00
  0.00000000E+00  0.00000000E+00  0.00000000E+00
 -0.83844419E+00 -0.26326983E+00  0.00000000E+00
 -0.26326983E+00  0.14837056E+01  0.00000000E+00
  0.00000000E+00  0.00000000E+00  0.00000000E+00
 -0.10862723E+01 -0.23947927E+00  0.00000000E+00
 -0.23947927E+00  0.90544004E+00  0.00000000E+00
  0.00000000E+00  0.00000000E+00  0.00000000E+00
 -0.90432393E+00 -0.18798631E+00  0.00000000E+00
 -0.18798631E+00  0.98095647E+00  0.00000000E+00
  0.00000000E+00  0.00000000E+00  0.00000000E+00
 -0.10543846E+01 -0.16845812E+00  0.00000000E+00
 -0.16845812E+00  0.63081481E+00  0.00000000E+00
  0.00000000E+00  0.00000000E+00  0.00000000E+00
 -0.93926550E+00 -0.14669485E+00  0.00000000E+00
 -0.14669485E+00  0.62451202E+00  0.00000000E+00
  0.00000000E+00  0.00000000E+00  0.00000000E+00
 -0.10301786E+01 -0.11926120E+00  0.00000000E+00
 -0.11926120E+00  0.41238133E+00  0.00000000E+00
  0.00000000E+00  0.00000000E+00  0.00000000E+00
 -0.96074229E+00 -0.11613900E+00  0.00000000E+00
 -0.11613900E+00  0.35855598E+00  0.00000000E+00
  0.00000000E+00  0.00000000E+00  0.00000000E+00
 -0.10096478E+01 -0.77591243E-01  0.00000000E+00
 -0.77591243E-01  0.24444319E+00  0.00000000E+00
  0.00000000E+00  0.00000000E+00  0.00000000E+00
 -0.97471941E+00 -0.86529069E-01  0.00000000E+00
 -0.86529069E-01  0.16482570E+00  0.00000000E+00
  0.00000000E+00  0.00000000E+00  0.00000000E+00
 -0.99237703E+00 -0.38492438E-01  0.00000000E+00
 -0.38492438E-01  0.12362459E+00  0.00000000E+00
  0.00000000E+00  0.00000000E+00  0.00000000E+00
 -0.98422208E+00 -0.53625527E-01  0.00000000E+00
 -0.53625527E-01  0.39804197E-01  0.00000000E+00
  0.00000000E+00  0.00000000E+00  0.00000000E+00
 -0.98029444E+00 -0.23416570E-02  0.00000000E+00
 -0.23416570E-02  0.48968693E-01  0.00000000E+00
  0.00000000E+00  0.00000000E+00  0.00000000E+00
 -0.99416484E+00 -0.18142072E-01  0.00000000E+00
 -0.18142072E-01 -0.16162975E-01  0.00000000E+00
  0.00000000E+00  0.00000000E+00  0.00000000E+00
 -0.97724001E+00  0.23851966E-01  0.00000000E+00
  0.23851966E-01  0.23328318E-01  0.00000000E+00
  0.00000000E+00  0.00000000E+00  0.00000000E+00
 -0.10104531E+01  0.10453073E-01  0.00000000E+00
  0.10453073E-01 -0.10453064E-01  0.00000000E+00
  0.00000000E+00  0.00000000E+00  0.00000000E+00
  0.50865611E+00 -0.11967659E+01  0.00000000E+00
 -0.11967659E+01  0.11868643E+01  0.00000000E+00
  0.00000000E+00  0.00000000E+00  0.00000000E+00
  0.29863156E-01 -0.11731950E+01  0.00000000E+00
 -0.11731950E+01  0.17835117E+01  0.00000000E+00
  0.00000000E+00  0.00000000E+00  0.00000000E+00
 -0.23786682E+00 -0.10831273E+01  0.00000000E+00
 -0.10831273E+01  0.11588084E+01  0.00000000E+00
  0.00000000E+00  0.00000000E+00  0.00000000E+00
 -0.39289277E+00 -0.95200630E+00  0.00000000E+00
 -0.95200630E+00  0.19694395E+01  0.00000000E+00
  0.00000000E+00  0.00000000E+00  0.00000000E+00
 -0.82666591E+00 -0.79111017E+00  0.00000000E+00
 -0.79111017E+00  0.95730217E+00  0.00000000E+00
  0.00000000E+00  0.00000000E+00  0.00000000E+00
 -0.66363074E+00 -0.66101630E+00  0.00000000E+00
 -0.66101630E+00  0.14447363E+01  0.00000000E+00
  0.00000000E+00  0.00000000E+00  0.00000000E+00
 -0.96380519E+00 -0.58898189E+00  0.00000000E+00
 -0.58898189E+00  0.74432932E+00  0.00000000E+00
  0.00000000E+00  0.00000000E+00  0.00000000E+00
 -0.78413161E+00 -0.49492725E+00  0.00000000E+00
 -0.49492725E+00  0.10349289E+01  0.00000000E+00
  0.00000000E+00  0.00000000E+00  0.00000000E+00
 -0.99319773E+00 -0.44954648E+00  0.00000000E+00
 -0.44954648E+00  0.54710796E+00  0.00000000E+00
  0.00000000E+00  0.00000000E+00  0.00000000E+00
 -0.84272800E+00 -0.38456917E+00  0.00000000E+00
 -0.38456917E+00  0.72152480E+00  0.00000000E+00
  0.00000000E+00  0.00000000E+00  0.00000000E+00
 -0.99044982E+00 -0.34158285E+00  0.00000000E+00
 -0.34158285E+00  0.37684054E+00  0.00000000E+00
  0.00000000E+00  0.00000000E+00  0.00000000E+00
 -0.87295636E+00 -0.29749980E+00  0.00000000E+00
 -0.29749980E+00  0.47976231E+00  0.00000000E+00
  0.00000000E+00  0.00000000E+00  0.00000000E+00
 -0.97720100E+00 -0.24821388E+00  0.00000000E+00
 -0.24821388E+00  0.23652482E+00  0.00000000E+00
  0.00000000E+00  0.00000000E+00  0.00000000E+00
 -0.89000904E+00 -0.21893707E+00  0.00000000E+00
 -0.21893707E+00  0.29571693E+00  0.00000000E+00
  0.00000000E+00  0.00000000E+00  0.00000000E+00
 -0.96240057E+00 -0.16162892E+00  0.00000000E+00
 -0.16162892E+00  0.12680336E+00  0.00000000E+00
  0.00000000E+00  0.00000000E+00  0.00000000E+00
 -0.90518860E+00 -0.14334899E+00  0.00000000E+00
 -0.14334899E+00  0.16099106E+00  0.00000000E+00
  0.00000000E+00  0.00000000E+00  0.00000000E+00
 -0.95272024E+00 -0.80011066E-01  0.00000000E+00
 -0.80011066E-01  0.50083894E-01  0.00000000E+00
  0.00000000E+00  0.00000000E+00  0.00000000E+00
 -0.93529518E+00 -0.72892016E-01  0.00000000E+00
 -0.72892016E-01  0.68254087E-01  0.00000000E+00
  0.00000000E+00  0.00000000E+00  0.00000000E+00
 -0.95758158E+00 -0.76103570E-02  0.00000000E+00
 -0.76103570E-02  0.16252503E-01  0.00000000E+00
  0.00000000E+00  0.00000000E+00  0.00000000E+00
 -0.10137474E+01 -0.20557572E-01  0.00000000E+00
 -0.20557572E-01  0.76822791E-02  0.00000000E+00
  0.00000000E+00  0.00000000E+00  0.00000000E+00
  0.27936489E+00 -0.10589531E+01  0.00000000E+00
 -0.10589531E+01  0.65185141E+00  0.00000000E+00
  0.00000000E+00  0.00000000E+00  0.00000000E+00
  0.26311215E-01 -0.10439051E+01  0.00000000E+00
 -0.10439051E+01  0.98014502E+00  0.00000000E+00
  0.00000000E+00  0.00000000E+00  0.00000000E+00
 -0.10079009E+00 -0.10797141E+01  0.00000000E+00
 -0.10797141E+01  0.68357531E+00  0.00000000E+00
  0.00000000E+00  0.00000000E+00  0.00000000E+00
 -0.27964346E+00 -0.10240190E+01  0.00000000E+00
 -0.10240190E+01  0.11409041E+01  0.00000000E+00
  0.00000000E+00  0.00000000E+00  0.00000000E+00
 -0.49889518E+00 -0.96671768E+00  0.00000000E+00
 -0.96671768E+00  0.62931677E+00  0.00000000E+00
  0.00000000E+00  0.00000000E+00  0.00000000E+00
 -0.50586061E+00 -0.87501608E+00  0.00000000E+00
 -0.87501608E+00  0.10947902E+01  0.00000000E+00
  0.00000000E+00  0.00000000E+00  0.00000000E+00
 -0.75280531E+00 -0.80216014E+00  0.00000000E+00
 -0.80216014E+00  0.51858585E+00  0.00000000E+00
  0.00000000E+00  0.00000000E+00  0.00000000E+00
 -0.64587524E+00 -0.70837429E+00  0.00000000E+00
 -0.70837429E+00  0.88058501E+00  0.00000000E+00
  0.00000000E+00  0.00000000E+00  0.00000000E+00
 -0.85352653E+00 -0.65001296E+00  0.00000000E+00
 -0.65001296E+00  0.39606533E+00  0.00000000E+00
  0.00000000E+00  0.00000000E+00  0.00000000E+00
 -0.72069972E+00 -0.56988210E+00  0.00000000E+00
 -0.56988210E+00  0.66389282E+00  0.00000000E+00
  0.00000000E+00  0.00000000E+00  0.00000000E+00
 -0.88529914E+00 -0.51485936E+00  0.00000000E+00
 -0.51485936E+00  0.27982751E+00  0.00000000E+00
  0.00000000E+00  0.00000000E+00  0.00000000E+00
 -0.76007929E+00 -0.45066673E+00  0.00000000E+00
 -0.45066673E+00  0.47557077E+00  0.00000000E+00
  0.00000000E+00  0.00000000E+00  0.00000000E+00
 -0.88773365E+00 -0.39109983E+00  0.00000000E+00
 -0.39109983E+00  0.17771060E+00  0.00000000E+00
  0.00000000E+00  0.00000000E+00  0.00000000E+00
 -0.78281394E+00 -0.34169129E+00  0.00000000E+00
 -0.34169129E+00  0.31983356E+00  0.00000000E+00
  0.00000000E+00  0.00000000E+00  0.00000000E+00
 -0.87993762E+00 -0.27395696E+00  0.00000000E+00
 -0.27395696E+00  0.93211632E-01  0.00000000E+00
  0.00000000E+00  0.00000000E+00  0.00000000E+00
 -0.80450515E+00 -0.23861823E+00  0.00000000E+00
 -0.23861823E+00  0.19447283E+00  0.00000000E+00
  0.00000000E+00  0.00000000E+00  0.00000000E+00
 -0.87491553E+00 -0.16044048E+00  0.00000000E+00
 -0.16044048E+00  0.30181932E-01  0.00000000E+00
  0.00000000E+00  0.00000000E+00  0.00000000E+00
 -0.84676421E+00 -0.14174788E+00  0.00000000E+00
 -0.14174788E+00  0.95493620E-01  0.00000000E+00
  0.00000000E+00  0.00000000E+00  0.00000000E+00
 -0.88840692E+00 -0.48446640E-01  0.00000000E+00
 -0.48446640E-01 -0.16726859E-02  0.00000000E+00
  0.00000000E+00  0.00000000E+00  0.00000000E+00
 -0.94969409E+00 -0.56442967E-01  0.00000000E+00
 -0.56442967E-01  0.19632854E-01  0.00000000E+00
  0.00000000E+00  0.00000000E+00  0.00000000E+00
  0.11798268E+00 -0.97217296E+00  0.00000000E+00
 -0.97217296E+00  0.27529291E+00  0.00000000E+00
  0.00000000E+00  0.00000000E+00  0.00000000E+00
 -0.24365558E-01 -0.95136494E+00  0.00000000E+00
 -0.95136494E+00  0.52168122E+00  0.00000000E+00
  0.00000000E+00  0.00000000E+00  0.00000000E+00
 -0.11556790E+00 -0.10358269E+01  0.00000000E+00
 -0.10358269E+01  0.30887576E+00  0.00000000E+00
  0.00000000E+00  0.00000000E+00  0.00000000E+00
 -0.23423497E+00 -0.99605855E+00  0.00000000E+00
 -0.99605855E+00  0.62638464E+00  0.00000000E+00
  0.00000000E+00  0.00000000E+00  0.00000000E+00
 -0.37238120E+00 -0.10045324E+01  0.00000000E+00
 -0.10045324E+01  0.30404345E+00  0.00000000E+00
  0.00000000E+00  0.00000000E+00  0.00000000E+00
 -0.40212702E+00 -0.93713251E+00  0.00000000E+00
 -0.93713251E+00  0.67078884E+00  0.00000000E+00
  0.00000000E+00  0.00000000E+00  0.00000000E+00
 -0.57608300E+00 -0.90316814E+00  0.00000000E+00
 -0.90316814E+00  0.26489155E+00  0.00000000E+00
  0.00000000E+00  0.00000000E+00  0.00000000E+00
 -0.51991663E+00 -0.82123412E+00  0.00000000E+00
 -0.82123412E+00  0.61839528E+00  0.00000000E+00
  0.00000000E+00  0.00000000E+00  0.00000000E+00
 -0.69614162E+00 -0.77060137E+00  0.00000000E+00
 -0.77060137E+00  0.20720364E+00  0.00000000E+00
  0.00000000E+00  0.00000000E+00  0.00000000E+00
 -0.59358780E+00 -0.69003781E+00  0.00000000E+00
 -0.69003781E+00  0.50746764E+00  0.00000000E+00
  0.00000000E+00  0.00000000E+00  0.00000000E+00
 -0.74853718E+00 -0.63188075E+00  0.00000000E+00
 -0.63188075E+00  0.14591910E+00  0.00000000E+00
  0.00000000E+00  0.00000000E+00  0.00000000E+00
 -0.63633051E+00 -0.56131757E+00  0.00000000E+00
 -0.56131757E+00  0.38652835E+00  0.00000000E+00
  0.00000000E+00  0.00000000E+00  0.00000000E+00
 -0.76397196E+00 -0.49492351E+00  0.00000000E+00
 -0.49492351E+00  0.88698293E-01  0.00000000E+00